 Entering Gaussian System, Link 0=g03
 Input=test.com
 Output=test.log
 Initial command:
 /system/software/orac/g03_E.01/g03/l1.exe /export/home/spin_dynamics/kuprov/mps/Gau-216603.inp -scrdir=/export/home/spin_dynamics/kuprov/mps/
 Entering Link 1 = /system/software/orac/g03_E.01/g03/l1.exe PID=    216604.
  
 Copyright (c) 1988,1990,1992,1993,1995,1998,2003,2004,2007, Gaussian, Inc.
                  All Rights Reserved.
  
 This is the Gaussian(R) 03 program.  It is based on the
 the Gaussian(R) 98 system (copyright 1998, Gaussian, Inc.),
 the Gaussian(R) 94 system (copyright 1995, Gaussian, Inc.),
 the Gaussian 92(TM) system (copyright 1992, Gaussian, Inc.),
 the Gaussian 90(TM) system (copyright 1990, Gaussian, Inc.),
 the Gaussian 88(TM) system (copyright 1988, Gaussian, Inc.),
 the Gaussian 86(TM) system (copyright 1986, Carnegie Mellon
 University), and the Gaussian 82(TM) system (copyright 1983,
 Carnegie Mellon University). Gaussian is a federally registered
 trademark of Gaussian, Inc.
  
 This software contains proprietary and confidential information,
 including trade secrets, belonging to Gaussian, Inc.
  
 This software is provided under written license and may be
 used, copied, transmitted, or stored only in accord with that
 written license.
  
 The following legend is applicable only to US Government
 contracts under FAR:
  
                    RESTRICTED RIGHTS LEGEND
  
 Use, reproduction and disclosure by the US Government is
 subject to restrictions as set forth in subparagraphs (a)
 and (c) of the Commercial Computer Software - Restricted
 Rights clause in FAR 52.227-19.
  
 Gaussian, Inc.
 340 Quinnipiac St., Bldg. 40, Wallingford CT 06492
  
  
 ---------------------------------------------------------------
 Warning -- This program may not be used in any manner that
 competes with the business of Gaussian, Inc. or will provide
 assistance to any competitor of Gaussian, Inc.  The licensee
 of this program is prohibited from giving any competitor of
 Gaussian, Inc. access to this program.  By using this program,
 the user acknowledges that Gaussian, Inc. is engaged in the
 business of creating and licensing software in the field of
 computational chemistry and represents and warrants to the
 licensee that it is not a competitor of Gaussian, Inc. and that
 it will not use this program in any manner prohibited above.
 ---------------------------------------------------------------
  

 Cite this work as:
 Gaussian 03, Revision E.01,
 M. J. Frisch, G. W. Trucks, H. B. Schlegel, G. E. Scuseria, 
 M. A. Robb, J. R. Cheeseman, J. A. Montgomery, Jr., T. Vreven, 
 K. N. Kudin, J. C. Burant, J. M. Millam, S. S. Iyengar, J. Tomasi, 
 V. Barone, B. Mennucci, M. Cossi, G. Scalmani, N. Rega, 
 G. A. Petersson, H. Nakatsuji, M. Hada, M. Ehara, K. Toyota, 
 R. Fukuda, J. Hasegawa, M. Ishida, T. Nakajima, Y. Honda, O. Kitao, 
 H. Nakai, M. Klene, X. Li, J. E. Knox, H. P. Hratchian, J. B. Cross, 
 V. Bakken, C. Adamo, J. Jaramillo, R. Gomperts, R. E. Stratmann, 
 O. Yazyev, A. J. Austin, R. Cammi, C. Pomelli, J. W. Ochterski, 
 P. Y. Ayala, K. Morokuma, G. A. Voth, P. Salvador, J. J. Dannenberg, 
 V. G. Zakrzewski, S. Dapprich, A. D. Daniels, M. C. Strain, 
 O. Farkas, D. K. Malick, A. D. Rabuck, K. Raghavachari, 
 J. B. Foresman, J. V. Ortiz, Q. Cui, A. G. Baboul, S. Clifford, 
 J. Cioslowski, B. B. Stefanov, G. Liu, A. Liashenko, P. Piskorz, 
 I. Komaromi, R. L. Martin, D. J. Fox, T. Keith, M. A. Al-Laham, 
 C. Y. Peng, A. Nanayakkara, M. Challacombe, P. M. W. Gill, 
 B. Johnson, W. Chen, M. W. Wong, C. Gonzalez, and J. A. Pople, 
 Gaussian, Inc., Wallingford CT, 2004.
 
 ******************************************
 Gaussian 03:  IA64L-G03RevE.01 11-Sep-2007
                27-Oct-2011 
 ******************************************
 %Mem=4GB
 %NProcShared=16
 Will use up to   16 processors via shared memory.
 %Chk=test.chk
 --------------------------------------------------------------
 #p opt=tight b3lyp/cc-pvdz scf=tight integral=(grid=ultrafine)
 --------------------------------------------------------------
 1/7=10,14=-1,18=20,26=3,38=1/1,3;
 2/9=110,17=6,18=5,40=1/2;
 3/5=16,11=2,16=1,25=1,30=1,74=-5,75=5/1,2,3;
 4//1;
 5/5=2,32=2,38=5/2;
 6/7=2,8=2,9=2,10=2,28=1/1;
 7//1,2,3,16;
 1/14=-1,18=20/3(3);
 2/9=110/2;
 6/7=2,8=2,9=2,10=2,19=2,28=1/1;
 99//99;
 2/9=110/2;
 3/5=16,11=2,16=1,25=1,30=1,74=-5,75=5/1,2,3;
 4/5=5,16=3/1;
 5/5=2,32=2,38=5/2;
 7//1,2,3,16;
 1/14=-1,18=20/3(-5);
 2/9=110/2;
 6/7=2,8=2,9=2,10=2,19=2,28=1/1;
 99/9=1/99;
 Leave Link    1 at Thu Oct 27 19:35:41 2011, MaxMem=  536870912 cpu:       1.3
 (Enter /system/software/orac/g03_E.01/g03/l101.exe)
 ----------------------------------------
 Test molecule for MPS module in Spinach.
 ----------------------------------------
 Symbolic Z-matrix:
 Charge =  0 Multiplicity = 1
 C                    -0.30438   1.13412   0.03437 
 C                     1.23016   1.03791  -0.02403 
 C                     0.54607   2.41898  -0.00522 
 H                    -0.80155   0.83168   0.93229 
 H                     1.72749   0.72676  -0.91888 
 H                     1.79466   0.73621   0.83342 
 H                     0.56525   3.03899   0.86664 
 F                    -1.01511   0.74008  -1.04363 
 C                     0.48468   3.28884  -1.27454 
 H                     0.24475   2.84333  -2.21733 
 C                     0.73452   4.61858  -1.19746 
 H                     0.69187   5.22296  -2.07939 
 H                     0.97445   5.06409  -0.25467 
 
                    Isotopes and Nuclear Properties:
 (Nuclear quadrupole moments (NQMom) in fm**2, nuclear magnetic moments (NMagM)
  in nuclear magnetons)

  Atom         1           2           3           4           5           6           7           8           9          10
 IAtWgt=          12          12          12           1           1           1           1          19          12           1
 AtmWgt=  12.0000000  12.0000000  12.0000000   1.0078250   1.0078250   1.0078250   1.0078250  18.9984032  12.0000000   1.0078250
 NucSpn=           0           0           0           1           1           1           1           1           0           1
 AtZEff=   0.0000000   0.0000000   0.0000000   0.0000000   0.0000000   0.0000000   0.0000000   0.0000000   0.0000000   0.0000000
 NQMom=    0.0000000   0.0000000   0.0000000   0.0000000   0.0000000   0.0000000   0.0000000   0.0000000   0.0000000   0.0000000
 NMagM=    0.0000000   0.0000000   0.0000000   2.7928460   2.7928460   2.7928460   2.7928460   2.6288670   0.0000000   2.7928460

  Atom        11          12          13
 IAtWgt=          12           1           1
 AtmWgt=  12.0000000   1.0078250   1.0078250
 NucSpn=           0           1           1
 AtZEff=   0.0000000   0.0000000   0.0000000
 NQMom=    0.0000000   0.0000000   0.0000000
 NMagM=    0.0000000   2.7928460   2.7928460
 Leave Link  101 at Thu Oct 27 19:35:41 2011, MaxMem=  536870912 cpu:       0.7
 (Enter /system/software/orac/g03_E.01/g03/l103.exe)

 GradGradGradGradGradGradGradGradGradGradGradGradGradGradGradGradGradGrad
 Berny optimization.
 Initialization pass.
                           ----------------------------
                           !    Initial Parameters    !
                           ! (Angstroms and Degrees)  !
 --------------------------                            --------------------------
 ! Name  Definition              Value          Derivative Info.                !
 --------------------------------------------------------------------------------
 ! R1    R(1,2)                  1.5387         estimate D2E/DX2                !
 ! R2    R(1,3)                  1.5413         estimate D2E/DX2                !
 ! R3    R(1,4)                  1.07           estimate D2E/DX2                !
 ! R4    R(1,8)                  1.35           estimate D2E/DX2                !
 ! R5    R(2,3)                  1.5413         estimate D2E/DX2                !
 ! R6    R(2,5)                  1.07           estimate D2E/DX2                !
 ! R7    R(2,6)                  1.07           estimate D2E/DX2                !
 ! R8    R(3,7)                  1.07           estimate D2E/DX2                !
 ! R9    R(3,9)                  1.54           estimate D2E/DX2                !
 ! R10   R(9,10)                 1.07           estimate D2E/DX2                !
 ! R11   R(9,11)                 1.3552         estimate D2E/DX2                !
 ! R12   R(11,12)                1.07           estimate D2E/DX2                !
 ! R13   R(11,13)                1.07           estimate D2E/DX2                !
 ! A1    A(2,1,4)              118.5271         estimate D2E/DX2                !
 ! A2    A(2,1,8)              118.4567         estimate D2E/DX2                !
 ! A3    A(3,1,4)              120.9007         estimate D2E/DX2                !
 ! A4    A(3,1,8)              120.8835         estimate D2E/DX2                !
 ! A5    A(4,1,8)              110.0583         estimate D2E/DX2                !
 ! A6    A(1,2,5)              120.8956         estimate D2E/DX2                !
 ! A7    A(1,2,6)              120.8886         estimate D2E/DX2                !
 ! A8    A(3,2,5)              118.4932         estimate D2E/DX2                !
 ! A9    A(3,2,6)              118.4906         estimate D2E/DX2                !
 ! A10   A(5,2,6)              110.0583         estimate D2E/DX2                !
 ! A11   A(1,3,7)              118.1636         estimate D2E/DX2                !
 ! A12   A(1,3,9)              118.0361         estimate D2E/DX2                !
 ! A13   A(2,3,7)              121.4119         estimate D2E/DX2                !
 ! A14   A(2,3,9)              120.9138         estimate D2E/DX2                !
 ! A15   A(7,3,9)              110.183          estimate D2E/DX2                !
 ! A16   A(3,9,10)             120.0            estimate D2E/DX2                !
 ! A17   A(3,9,11)             120.0            estimate D2E/DX2                !
 ! A18   A(10,9,11)            120.0            estimate D2E/DX2                !
 ! A19   A(9,11,12)            120.0            estimate D2E/DX2                !
 ! A20   A(9,11,13)            120.0            estimate D2E/DX2                !
 ! A21   A(12,11,13)           120.0            estimate D2E/DX2                !
 ! D1    D(4,1,2,5)            141.5397         estimate D2E/DX2                !
 ! D2    D(4,1,2,6)             -3.9184         estimate D2E/DX2                !
 ! D3    D(8,1,2,5)              3.9258         estimate D2E/DX2                !
 ! D4    D(8,1,2,6)           -141.5322         estimate D2E/DX2                !
 ! D5    D(4,1,3,7)             -4.5835         estimate D2E/DX2                !
 ! D6    D(4,1,3,9)           -141.3429         estimate D2E/DX2                !
 ! D7    D(8,1,3,7)            140.8746         estimate D2E/DX2                !
 ! D8    D(8,1,3,9)              4.1151         estimate D2E/DX2                !
 ! D9    D(5,2,3,7)           -142.2366         estimate D2E/DX2                !
 ! D10   D(5,2,3,9)              4.577          estimate D2E/DX2                !
 ! D11   D(6,2,3,7)             -4.6228         estimate D2E/DX2                !
 ! D12   D(6,2,3,9)            142.1909         estimate D2E/DX2                !
 ! D13   D(1,3,9,10)           -26.6499         estimate D2E/DX2                !
 ! D14   D(1,3,9,11)           153.3501         estimate D2E/DX2                !
 ! D15   D(2,3,9,10)            43.2491         estimate D2E/DX2                !
 ! D16   D(2,3,9,11)          -136.7509         estimate D2E/DX2                !
 ! D17   D(7,3,9,10)          -166.5992         estimate D2E/DX2                !
 ! D18   D(7,3,9,11)            13.4008         estimate D2E/DX2                !
 ! D19   D(3,9,11,12)          179.9999         estimate D2E/DX2                !
 ! D20   D(3,9,11,13)            0.0            estimate D2E/DX2                !
 ! D21   D(10,9,11,12)          -0.0001         estimate D2E/DX2                !
 ! D22   D(10,9,11,13)        -180.0            estimate D2E/DX2                !
 --------------------------------------------------------------------------------
 Trust Radius=3.00D-01 FncErr=1.00D-07 GrdErr=1.00D-06
 Number of steps in this run=  66 maximum allowed number of steps= 100.
 GradGradGradGradGradGradGradGradGradGradGradGradGradGradGradGradGradGrad

 Leave Link  103 at Thu Oct 27 19:35:42 2011, MaxMem=  536870912 cpu:       0.2
 (Enter /system/software/orac/g03_E.01/g03/l202.exe)
                          Input orientation:                          
 ---------------------------------------------------------------------
 Center     Atomic     Atomic              Coordinates (Angstroms)
 Number     Number      Type              X           Y           Z
 ---------------------------------------------------------------------
    1          6             0       -0.304382    1.134122    0.034371
    2          6             0        1.230161    1.037907   -0.024032
    3          6             0        0.546071    2.418984   -0.005215
    4          1             0       -0.801549    0.831676    0.932286
    5          1             0        1.727489    0.726762   -0.918880
    6          1             0        1.794660    0.736208    0.833417
    7          1             0        0.565255    3.038987    0.866638
    8          9             0       -1.015111    0.740077   -1.043633
    9          6             0        0.484676    3.288842   -1.274536
   10          1             0        0.244750    2.843329   -2.217327
   11          6             0        0.734524    4.618580   -1.197456
   12          1             0        0.691869    5.222962   -2.079387
   13          1             0        0.974451    5.064093   -0.254666
 ---------------------------------------------------------------------
                    Distance matrix (angstroms):
                    1          2          3          4          5
     1  C    0.000000
     2  C    1.538665   0.000000
     3  C    1.541333   1.541333   0.000000
     4  H    1.070000   2.254976   2.283535   0.000000
     5  H    2.281037   1.070000   2.257022   3.135898   0.000000
     6  H    2.280962   1.070000   2.256992   2.599844   1.753609
     7  H    2.253319   2.289042   1.070000   2.597053   3.144082
     8  F    1.350000   2.483855   2.516809   1.989537   2.745469
     9  C    2.641717   2.680713   1.540000   3.544306   2.869727
    10  H    2.879770   3.006846   2.272510   3.880921   2.892116
    11  C    3.839032   3.800499   2.509019   4.608249   4.026143
    12  H    4.709469   4.693498   3.490808   5.530268   4.757636
    13  H    4.142901   4.040885   2.691159   4.740926   4.452043
                    6          7          8          9         10
     6  H    0.000000
     7  H    2.610619   0.000000
     8  F    3.379075   3.381076   0.000000
     9  C    3.560262   2.157208   2.966291   0.000000
    10  H    4.018609   3.106741   2.718175   1.070000   0.000000
    11  C    4.507898   2.604659   4.257660   1.355200   2.105120
    12  H    5.461825   3.669447   4.907425   2.105120   2.425200
    13  H    4.537318   2.350706   4.824722   2.105120   3.052261
                   11         12         13
    11  C    0.000000
    12  H    1.070000   0.000000
    13  H    1.070000   1.853294   0.000000
 Stoichiometry    C5H7F
 Framework group  C1[X(C5H7F)]
 Deg. of freedom    33
 Full point group                 C1
 Largest Abelian subgroup         C1      NOp   1
 Largest concise Abelian subgroup C1      NOp   1
                         Standard orientation:                         
 ---------------------------------------------------------------------
 Center     Atomic     Atomic              Coordinates (Angstroms)
 Number     Number      Type              X           Y           Z
 ---------------------------------------------------------------------
    1          6             0       -1.261956    0.014727   -0.452952
    2          6             0       -0.952534    1.172832    0.511694
    3          6             0        0.172719    0.568874   -0.351292
    4          1             0       -1.868145    0.213326   -1.312017
    5          1             0       -0.925457    1.014411    1.569555
    6          1             0       -1.281176    2.168440    0.298009
    7          1             0        0.572236    1.093802   -1.193751
    8          9             0       -1.578140   -1.189722    0.068421
    9          6             0        1.253718   -0.331413    0.275226
   10          1             0        0.978426   -1.082834    0.985493
   11          6             0        2.553666   -0.171959   -0.073022
   12          1             0        3.304750   -0.797482    0.362287
   13          1             0        2.828958    0.579463   -0.783290
 ---------------------------------------------------------------------
 Rotational constants (GHZ):      6.9049428      2.3307976      1.9525234
 Leave Link  202 at Thu Oct 27 19:35:42 2011, MaxMem=  536870912 cpu:       0.2
 (Enter /system/software/orac/g03_E.01/g03/l301.exe)
 Standard basis: CC-pVDZ (5D, 7F)
 There are   119 symmetry adapted basis functions of A   symmetry.
 Integral buffers will be    131072 words long.
 Raffenetti 2 integral format.
 Two-electron integral symmetry is turned on.
   119 basis functions,   247 primitive gaussians,   125 cartesian basis functions
    23 alpha electrons       23 beta electrons
       nuclear repulsion energy       222.8107044023 Hartrees.
 IExCor= 402 DFT=T Ex=B+HF Corr=LYP ExCW=0 ScaHFX=  0.200000
 ScaDFX=  0.800000  0.720000  1.000000  0.810000
 IRadAn=      5 IRanWt=     -1 IRanGd=            0 ICorTp=0
 NAtoms=   13 NActive=   13 NUniq=   13 SFac= 7.50D-01 NAtFMM=   80 NAOKFM=F Big=F
 Leave Link  301 at Thu Oct 27 19:35:43 2011, MaxMem=  536870912 cpu:       0.5
 (Enter /system/software/orac/g03_E.01/g03/l302.exe)
 NPDir=0 NMtPBC=     1 NCelOv=     1 NCel=       1 NClECP=     1 NCelD=      1
         NCelK=      1 NCelE2=     1 NClLst=     1 CellRange=     0.0.
 One-electron integrals computed using PRISM.
 NBasis=   119 RedAO= T  NBF=   119
 NBsUse=   119 1.00D-06 NBFU=   119
 Precomputing XC quadrature grid using
 IXCGrd= 2 IRadAn=           5 IRanWt=          -1 IRanGd=           0.
 NRdTot=    1072 NPtTot=      287242 NUsed=      294799 NTot=      294831
 NSgBfM=   125   125   125   125.
 Leave Link  302 at Thu Oct 27 19:35:44 2011, MaxMem=  536870912 cpu:       3.4
 (Enter /system/software/orac/g03_E.01/g03/l303.exe)
 DipDrv:  MaxL=1.
 Leave Link  303 at Thu Oct 27 19:35:44 2011, MaxMem=  536870912 cpu:       0.1
 (Enter /system/software/orac/g03_E.01/g03/l401.exe)
 Harris functional with IExCor=  402 diagonalized for initial guess.
 ExpMin= 1.22D-01 ExpMax= 1.47D+04 ExpMxC= 5.03D+02 IAcc=3 IRadAn=         5 AccDes= 0.00D+00
 HarFok:  IExCor= 402 AccDes= 0.00D+00 IRadAn=         5 IDoV=1
 ScaDFX=  1.000000  1.000000  1.000000  1.000000
 Harris En= -294.600066892452    
 Initial guess orbital symmetries:
       Occupied  (A) (A) (A) (A) (A) (A) (A) (A) (A) (A) (A) (A)
                 (A) (A) (A) (A) (A) (A) (A) (A) (A) (A) (A)
       Virtual   (A) (A) (A) (A) (A) (A) (A) (A) (A) (A) (A) (A)
                 (A) (A) (A) (A) (A) (A) (A) (A) (A) (A) (A) (A)
                 (A) (A) (A) (A) (A) (A) (A) (A) (A) (A) (A) (A)
                 (A) (A) (A) (A) (A) (A) (A) (A) (A) (A) (A) (A)
                 (A) (A) (A) (A) (A) (A) (A) (A) (A) (A) (A) (A)
                 (A) (A) (A) (A) (A) (A) (A) (A) (A) (A) (A) (A)
                 (A) (A) (A) (A) (A) (A) (A) (A) (A) (A) (A) (A)
                 (A) (A) (A) (A) (A) (A) (A) (A) (A) (A) (A) (A)
 The electronic state of the initial guess is 1-A.
 Leave Link  401 at Thu Oct 27 19:35:46 2011, MaxMem=  536870912 cpu:       4.8
 (Enter /system/software/orac/g03_E.01/g03/l502.exe)
 Closed shell SCF:
 Requested convergence on RMS density matrix=1.00D-08 within 128 cycles.
 Requested convergence on MAX density matrix=1.00D-06.
 Requested convergence on             energy=1.00D-06.
 No special actions if energy rises.
 Using DIIS extrapolation, IDIIS=  1040.
 Integral symmetry usage will be decided dynamically.
       294798 words used for storage of precomputed grid.
 Keep R1 integrals in memory in canonical form, NReq=    33201372.
 IEnd=    369483 IEndB=    369483 NGot= 536870912 MDV= 505522056
 LenX= 505522056
 Symmetry not used in FoFDir.
 MinBra= 0 MaxBra= 2 Meth= 1.
 IRaf=       0 NMat=   1 IRICut=       1 DoRegI=T DoRafI=F ISym2E= 0 JSym2E=0.
 Integral accuracy reduced to 1.0D-05 until final iterations.

 Cycle   1  Pass 0  IDiag  1:
 E= -294.342169245043    
 DIIS: error= 3.37D-02 at cycle   1 NSaved=   1.
 NSaved= 1 IEnMin= 1 EnMin= -294.342169245043     IErMin= 1 ErrMin= 3.37D-02
 ErrMax= 3.37D-02 EMaxC= 1.00D-01 BMatC= 1.60D-01 BMatP= 1.60D-01
 IDIUse=3 WtCom= 6.63D-01 WtEn= 3.37D-01
 Coeff-Com:  0.100D+01
 Coeff-En:   0.100D+01
 Coeff:      0.100D+01
 Gap=     0.274 Goal=   None    Shift=    0.000
 GapD=    0.274 DampG=1.000 DampE=0.500 DampFc=0.5000 IDamp=-1.
 Damping current iteration by 5.00D-01
 RMSDP=6.61D-03 MaxDP=1.26D-01              OVMax= 1.66D-01

 Cycle   2  Pass 0  IDiag  1:
 E= -294.428514900958     Delta-E=       -0.086345655915 Rises=F Damp=T
 DIIS: error= 3.13D-03 at cycle   2 NSaved=   2.
 NSaved= 2 IEnMin= 2 EnMin= -294.428514900958     IErMin= 2 ErrMin= 3.13D-03
 ErrMax= 3.13D-03 EMaxC= 1.00D-01 BMatC= 4.58D-03 BMatP= 1.60D-01
 IDIUse=3 WtCom= 9.69D-01 WtEn= 3.13D-02
 Coeff-Com:  0.226D-01 0.977D+00
 Coeff-En:   0.381D-01 0.962D+00
 Coeff:      0.230D-01 0.977D+00
 Gap=     0.316 Goal=   None    Shift=    0.000
 RMSDP=1.35D-03 MaxDP=1.76D-02 DE=-8.63D-02 OVMax= 9.47D-02

 Cycle   3  Pass 0  IDiag  1:
 E= -294.522783249614     Delta-E=       -0.094268348656 Rises=F Damp=F
 DIIS: error= 2.33D-03 at cycle   3 NSaved=   3.
 NSaved= 3 IEnMin= 3 EnMin= -294.522783249614     IErMin= 3 ErrMin= 2.33D-03
 ErrMax= 2.33D-03 EMaxC= 1.00D-01 BMatC= 1.97D-03 BMatP= 4.58D-03
 IDIUse=3 WtCom= 9.77D-01 WtEn= 2.33D-02
 Coeff-Com: -0.139D-01 0.374D+00 0.639D+00
 Coeff-En:   0.000D+00 0.000D+00 0.100D+01
 Coeff:     -0.136D-01 0.366D+00 0.648D+00
 Gap=     0.251 Goal=   None    Shift=    0.000
 RMSDP=5.12D-04 MaxDP=1.23D-02 DE=-9.43D-02 OVMax= 2.05D-02

 Cycle   4  Pass 0  IDiag  1:
 E= -294.524222759458     Delta-E=       -0.001439509844 Rises=F Damp=F
 DIIS: error= 1.29D-03 at cycle   4 NSaved=   4.
 NSaved= 4 IEnMin= 4 EnMin= -294.524222759458     IErMin= 4 ErrMin= 1.29D-03
 ErrMax= 1.29D-03 EMaxC= 1.00D-01 BMatC= 4.97D-04 BMatP= 1.97D-03
 IDIUse=3 WtCom= 9.87D-01 WtEn= 1.29D-02
 Coeff-Com: -0.108D-01 0.913D-01 0.355D+00 0.564D+00
 Coeff-En:   0.000D+00 0.000D+00 0.177D+00 0.823D+00
 Coeff:     -0.106D-01 0.902D-01 0.353D+00 0.568D+00
 Gap=     0.250 Goal=   None    Shift=    0.000
 RMSDP=1.90D-04 MaxDP=3.55D-03 DE=-1.44D-03 OVMax= 7.85D-03

 Cycle   5  Pass 0  IDiag  1:
 E= -294.524648050475     Delta-E=       -0.000425291017 Rises=F Damp=F
 DIIS: error= 3.83D-04 at cycle   5 NSaved=   5.
 NSaved= 5 IEnMin= 5 EnMin= -294.524648050475     IErMin= 5 ErrMin= 3.83D-04
 ErrMax= 3.83D-04 EMaxC= 1.00D-01 BMatC= 2.59D-05 BMatP= 4.97D-04
 IDIUse=3 WtCom= 9.96D-01 WtEn= 3.83D-03
 Coeff-Com: -0.411D-02 0.205D-01 0.128D+00 0.273D+00 0.583D+00
 Coeff-En:   0.000D+00 0.000D+00 0.000D+00 0.000D+00 0.100D+01
 Coeff:     -0.409D-02 0.204D-01 0.127D+00 0.272D+00 0.585D+00
 Gap=     0.250 Goal=   None    Shift=    0.000
 RMSDP=5.14D-05 MaxDP=1.38D-03 DE=-4.25D-04 OVMax= 3.94D-03

 Cycle   6  Pass 0  IDiag  1:
 E= -294.524666787474     Delta-E=       -0.000018736999 Rises=F Damp=F
 DIIS: error= 2.31D-04 at cycle   6 NSaved=   6.
 NSaved= 6 IEnMin= 6 EnMin= -294.524666787474     IErMin= 6 ErrMin= 2.31D-04
 ErrMax= 2.31D-04 EMaxC= 1.00D-01 BMatC= 7.84D-06 BMatP= 2.59D-05
 IDIUse=3 WtCom= 9.98D-01 WtEn= 2.31D-03
 Coeff-Com: -0.124D-02 0.259D-03 0.318D-01 0.941D-01 0.382D+00 0.493D+00
 Coeff-En:   0.000D+00 0.000D+00 0.000D+00 0.000D+00 0.259D+00 0.741D+00
 Coeff:     -0.123D-02 0.258D-03 0.317D-01 0.939D-01 0.382D+00 0.493D+00
 Gap=     0.250 Goal=   None    Shift=    0.000
 RMSDP=2.15D-05 MaxDP=5.34D-04 DE=-1.87D-05 OVMax= 1.52D-03

 Cycle   7  Pass 0  IDiag  1:
 E= -294.524674992394     Delta-E=       -0.000008204920 Rises=F Damp=F
 DIIS: error= 2.08D-05 at cycle   7 NSaved=   7.
 NSaved= 7 IEnMin= 7 EnMin= -294.524674992394     IErMin= 7 ErrMin= 2.08D-05
 ErrMax= 2.08D-05 EMaxC= 1.00D-01 BMatC= 9.58D-08 BMatP= 7.84D-06
 IDIUse=1 WtCom= 1.00D+00 WtEn= 0.00D+00
 Coeff-Com: -0.342D-03-0.803D-03 0.817D-02 0.276D-01 0.134D+00 0.204D+00
 Coeff-Com:  0.628D+00
 Coeff:     -0.342D-03-0.803D-03 0.817D-02 0.276D-01 0.134D+00 0.204D+00
 Coeff:      0.628D+00
 Gap=     0.250 Goal=   None    Shift=    0.000
 RMSDP=3.18D-06 MaxDP=5.26D-05 DE=-8.20D-06 OVMax= 8.73D-05

 Initial convergence to 1.0D-05 achieved.  Increase integral accuracy.
 Cycle   8  Pass 1  IDiag  1:
 E= -294.524673202229     Delta-E=        0.000001790165 Rises=F Damp=F
 DIIS: error= 6.52D-06 at cycle   1 NSaved=   1.
 NSaved= 1 IEnMin= 1 EnMin= -294.524673202229     IErMin= 1 ErrMin= 6.52D-06
 ErrMax= 6.52D-06 EMaxC= 1.00D-01 BMatC= 1.79D-08 BMatP= 1.79D-08
 IDIUse=1 WtCom= 1.00D+00 WtEn= 0.00D+00
 Coeff-Com:  0.100D+01
 Coeff:      0.100D+01
 Gap=     0.250 Goal=   None    Shift=    0.000
 RMSDP=3.18D-06 MaxDP=5.26D-05 DE= 1.79D-06 OVMax= 6.16D-05

 Cycle   9  Pass 1  IDiag  1:
 E= -294.524673187875     Delta-E=        0.000000014354 Rises=F Damp=F
 DIIS: error= 9.62D-06 at cycle   2 NSaved=   2.
 NSaved= 2 IEnMin= 1 EnMin= -294.524673202229     IErMin= 1 ErrMin= 6.52D-06
 ErrMax= 9.62D-06 EMaxC= 1.00D-01 BMatC= 3.80D-08 BMatP= 1.79D-08
 IDIUse=1 WtCom= 1.00D+00 WtEn= 0.00D+00
 Coeff-Com:  0.595D+00 0.405D+00
 Coeff:      0.595D+00 0.405D+00
 Gap=     0.250 Goal=   None    Shift=    0.000
 RMSDP=1.22D-06 MaxDP=3.12D-05 DE= 1.44D-08 OVMax= 4.15D-05

 Cycle  10  Pass 1  IDiag  1:
 E= -294.524673216421     Delta-E=       -0.000000028545 Rises=F Damp=F
 DIIS: error= 1.13D-06 at cycle   3 NSaved=   3.
 NSaved= 3 IEnMin= 3 EnMin= -294.524673216421     IErMin= 3 ErrMin= 1.13D-06
 ErrMax= 1.13D-06 EMaxC= 1.00D-01 BMatC= 2.06D-10 BMatP= 1.79D-08
 IDIUse=1 WtCom= 1.00D+00 WtEn= 0.00D+00
 Coeff-Com:  0.129D+00 0.116D+00 0.754D+00
 Coeff:      0.129D+00 0.116D+00 0.754D+00
 Gap=     0.250 Goal=   None    Shift=    0.000
 RMSDP=1.94D-07 MaxDP=5.43D-06 DE=-2.85D-08 OVMax= 1.42D-05

 Cycle  11  Pass 1  IDiag  1:
 E= -294.524673216438     Delta-E=       -0.000000000018 Rises=F Damp=F
 DIIS: error= 1.12D-06 at cycle   4 NSaved=   4.
 NSaved= 4 IEnMin= 4 EnMin= -294.524673216438     IErMin= 4 ErrMin= 1.12D-06
 ErrMax= 1.12D-06 EMaxC= 1.00D-01 BMatC= 1.92D-10 BMatP= 2.06D-10
 IDIUse=1 WtCom= 1.00D+00 WtEn= 0.00D+00
 Coeff-Com: -0.937D-02 0.148D-01 0.528D+00 0.466D+00
 Coeff:     -0.937D-02 0.148D-01 0.528D+00 0.466D+00
 Gap=     0.250 Goal=   None    Shift=    0.000
 RMSDP=1.01D-07 MaxDP=2.61D-06 DE=-1.77D-11 OVMax= 7.20D-06

 Cycle  12  Pass 1  IDiag  1:
 E= -294.524673216635     Delta-E=       -0.000000000197 Rises=F Damp=F
 DIIS: error= 9.84D-08 at cycle   5 NSaved=   5.
 NSaved= 5 IEnMin= 5 EnMin= -294.524673216635     IErMin= 5 ErrMin= 9.84D-08
 ErrMax= 9.84D-08 EMaxC= 1.00D-01 BMatC= 3.29D-12 BMatP= 1.92D-10
 IDIUse=1 WtCom= 1.00D+00 WtEn= 0.00D+00
 Coeff-Com: -0.996D-02 0.229D-02 0.226D+00 0.222D+00 0.560D+00
 Coeff:     -0.996D-02 0.229D-02 0.226D+00 0.222D+00 0.560D+00
 Gap=     0.250 Goal=   None    Shift=    0.000
 RMSDP=1.80D-08 MaxDP=3.81D-07 DE=-1.97D-10 OVMax= 8.19D-07

 Cycle  13  Pass 1  IDiag  1:
 E= -294.524673216638     Delta-E=       -0.000000000002 Rises=F Damp=F
 DIIS: error= 2.87D-08 at cycle   6 NSaved=   6.
 NSaved= 6 IEnMin= 6 EnMin= -294.524673216638     IErMin= 6 ErrMin= 2.87D-08
 ErrMax= 2.87D-08 EMaxC= 1.00D-01 BMatC= 2.98D-13 BMatP= 3.29D-12
 IDIUse=1 WtCom= 1.00D+00 WtEn= 0.00D+00
 Coeff-Com: -0.417D-02-0.361D-03 0.643D-01 0.636D-01 0.273D+00 0.604D+00
 Coeff:     -0.417D-02-0.361D-03 0.643D-01 0.636D-01 0.273D+00 0.604D+00
 Gap=     0.250 Goal=   None    Shift=    0.000
 RMSDP=4.60D-09 MaxDP=1.09D-07 DE=-2.39D-12 OVMax= 2.01D-07

 SCF Done:  E(RB+HF-LYP) =  -294.524673217     A.U. after   13 cycles
             Convg  =    0.4603D-08             -V/T =  2.0068
             S**2   =   0.0000
 KE= 2.925460552465D+02 PE=-1.134383347828D+03 EE= 3.245019149624D+02
 Leave Link  502 at Thu Oct 27 19:35:58 2011, MaxMem=  536870912 cpu:      83.8
 (Enter /system/software/orac/g03_E.01/g03/l601.exe)
 Copying SCF densities to generalized density rwf, ISCF=0 IROHF=0.

 **********************************************************************

            Population analysis using the SCF density.

 **********************************************************************

 Orbital symmetries:
       Occupied  (A) (A) (A) (A) (A) (A) (A) (A) (A) (A) (A) (A)
                 (A) (A) (A) (A) (A) (A) (A) (A) (A) (A) (A)
       Virtual   (A) (A) (A) (A) (A) (A) (A) (A) (A) (A) (A) (A)
                 (A) (A) (A) (A) (A) (A) (A) (A) (A) (A) (A) (A)
                 (A) (A) (A) (A) (A) (A) (A) (A) (A) (A) (A) (A)
                 (A) (A) (A) (A) (A) (A) (A) (A) (A) (A) (A) (A)
                 (A) (A) (A) (A) (A) (A) (A) (A) (A) (A) (A) (A)
                 (A) (A) (A) (A) (A) (A) (A) (A) (A) (A) (A) (A)
                 (A) (A) (A) (A) (A) (A) (A) (A) (A) (A) (A) (A)
                 (A) (A) (A) (A) (A) (A) (A) (A) (A) (A) (A) (A)
 The electronic state is 1-A.
 Alpha  occ. eigenvalues --  -24.68969 -10.27159 -10.21084 -10.19900 -10.19800
 Alpha  occ. eigenvalues --  -10.18071  -1.20949  -0.85680  -0.76251  -0.62568
 Alpha  occ. eigenvalues --   -0.62272  -0.56555  -0.52349  -0.50865  -0.45321
 Alpha  occ. eigenvalues --   -0.43594  -0.42316  -0.39953  -0.39151  -0.35119
 Alpha  occ. eigenvalues --   -0.32753  -0.28238  -0.24616
 Alpha virt. eigenvalues --    0.00430   0.06016   0.08878   0.09206   0.10738
 Alpha virt. eigenvalues --    0.11958   0.13326   0.14981   0.15511   0.19134
 Alpha virt. eigenvalues --    0.22799   0.23482   0.27377   0.31702   0.38800
 Alpha virt. eigenvalues --    0.42705   0.46293   0.47747   0.48396   0.49778
 Alpha virt. eigenvalues --    0.51760   0.52251   0.53304   0.54048   0.56426
 Alpha virt. eigenvalues --    0.60392   0.64042   0.64352   0.66068   0.67213
 Alpha virt. eigenvalues --    0.67858   0.69242   0.72194   0.73136   0.75978
 Alpha virt. eigenvalues --    0.84623   0.95031   0.99642   1.00586   1.02940
 Alpha virt. eigenvalues --    1.06534   1.09163   1.12188   1.16242   1.19483
 Alpha virt. eigenvalues --    1.20293   1.20809   1.27001   1.33449   1.39320
 Alpha virt. eigenvalues --    1.41485   1.43860   1.45074   1.46281   1.47505
 Alpha virt. eigenvalues --    1.50953   1.53742   1.57881   1.62875   1.63962
 Alpha virt. eigenvalues --    1.66159   1.66595   1.69792   1.70847   1.74412
 Alpha virt. eigenvalues --    1.76184   1.77084   1.82266   1.85363   1.86055
 Alpha virt. eigenvalues --    1.88473   1.90845   1.95934   1.98391   2.05528
 Alpha virt. eigenvalues --    2.11607   2.16208   2.17407   2.21840   2.23828
 Alpha virt. eigenvalues --    2.25549   2.28465   2.36574   2.45582   2.49265
 Alpha virt. eigenvalues --    2.51419   2.56420   2.71439   2.73837   2.82454
 Alpha virt. eigenvalues --    3.02831   3.60073   3.60604   3.81986   3.91257
 Alpha virt. eigenvalues --    4.09682
          Condensed to atoms (all electrons):
              1          2          3          4          5          6
     1  C    4.528327   0.303302   0.253999   0.393834  -0.007192  -0.005358
     2  C    0.303302   4.804820   0.258106  -0.033450   0.381082   0.364182
     3  C    0.253999   0.258106   5.034052  -0.041220  -0.010038  -0.003856
     4  H    0.393834  -0.033450  -0.041220   0.718841   0.003726  -0.005935
     5  H   -0.007192   0.381082  -0.010038   0.003726   0.644867  -0.039846
     6  H   -0.005358   0.364182  -0.003856  -0.005935  -0.039846   0.672826
     7  H   -0.024188  -0.022999   0.378296  -0.006968   0.004739  -0.010050
     8  F    0.359444  -0.025639  -0.043791  -0.034537  -0.000535   0.001622
     9  C   -0.024501  -0.035342   0.368121   0.005181  -0.007201   0.003420
    10  H   -0.004242  -0.002602  -0.059953   0.000643   0.003174  -0.000331
    11  C    0.002603   0.001364  -0.041815   0.000042   0.000255   0.000034
    12  H   -0.000308  -0.000244   0.007920   0.000002  -0.000039   0.000007
    13  H    0.000457   0.000441  -0.023430   0.000019   0.000038  -0.000038
              7          8          9         10         11         12
     1  C   -0.024188   0.359444  -0.024501  -0.004242   0.002603  -0.000308
     2  C   -0.022999  -0.025639  -0.035342  -0.002602   0.001364  -0.000244
     3  C    0.378296  -0.043791   0.368121  -0.059953  -0.041815   0.007920
     4  H   -0.006968  -0.034537   0.005181   0.000643   0.000042   0.000002
     5  H    0.004739  -0.000535  -0.007201   0.003174   0.000255  -0.000039
     6  H   -0.010050   0.001622   0.003420  -0.000331   0.000034   0.000007
     7  H    0.724089   0.001011  -0.024559   0.008483  -0.016613   0.000218
     8  F    0.001011   8.922226   0.008809   0.006646   0.000506  -0.000002
     9  C   -0.024559   0.008809   4.637238   0.386711   0.699798   0.002680
    10  H    0.008483   0.006646   0.386711   0.725537  -0.036334  -0.016176
    11  C   -0.016613   0.000506   0.699798  -0.036334   4.613805   0.365718
    12  H    0.000218  -0.000002   0.002680  -0.016176   0.365718   0.689293
    13  H    0.006184   0.000002  -0.007433   0.011227   0.373828  -0.057484
             13
     1  C    0.000457
     2  C    0.000441
     3  C   -0.023430
     4  H    0.000019
     5  H    0.000038
     6  H   -0.000038
     7  H    0.006184
     8  F    0.000002
     9  C   -0.007433
    10  H    0.011227
    11  C    0.373828
    12  H   -0.057484
    13  H    0.696831
 Mulliken atomic charges:
              1
     1  C    0.223822
     2  C    0.006979
     3  C   -0.076391
     4  H   -0.000178
     5  H    0.026971
     6  H    0.023322
     7  H   -0.017643
     8  F   -0.195761
     9  C   -0.012922
    10  H   -0.022784
    11  C    0.036810
    12  H    0.008416
    13  H   -0.000642
 Sum of Mulliken charges=   0.00000
 Atomic charges with hydrogens summed into heavy atoms:
              1
     1  C    0.223645
     2  C    0.057272
     3  C   -0.094034
     4  H    0.000000
     5  H    0.000000
     6  H    0.000000
     7  H    0.000000
     8  F   -0.195761
     9  C   -0.035706
    10  H    0.000000
    11  C    0.044584
    12  H    0.000000
    13  H    0.000000
 Sum of Mulliken charges=   0.00000
 Electronic spatial extent (au):  <R**2>=   639.2573
 Charge=     0.0000 electrons
 Dipole moment (field-independent basis, Debye):
    X=     0.1233    Y=     1.3118    Z=    -0.4236  Tot=     1.3840
 Quadrupole moment (field-independent basis, Debye-Ang):
   XX=   -36.1346   YY=   -36.3802   ZZ=   -34.5371
   XY=    -2.4545   XZ=     0.7273   YZ=    -1.5997
 Traceless Quadrupole moment (field-independent basis, Debye-Ang):
   XX=    -0.4506   YY=    -0.6962   ZZ=     1.1468
   XY=    -2.4545   XZ=     0.7273   YZ=    -1.5997
 Octapole moment (field-independent basis, Debye-Ang**2):
  XXX=    -8.3048  YYY=    -6.2450  ZZZ=     0.7464  XYY=    -3.8935
  XXY=    -1.5719  XXZ=    -3.0938  XZZ=    -7.2314  YZZ=    -2.1674
  YYZ=     0.5122  XYZ=    -3.3335
 Hexadecapole moment (field-independent basis, Debye-Ang**3):
 XXXX=  -542.8530 YYYY=  -168.5446 ZZZZ=   -85.0005 XXXY=     6.4440
 XXXZ=     4.3315 YYYX=     9.0151 YYYZ=    -3.4157 ZZZX=    -1.0948
 ZZZY=    -2.3530 XXYY=  -122.2405 XXZZ=  -105.6634 YYZZ=   -41.8052
 XXYZ=    -7.2159 YYXZ=     0.1722 ZZXY=     4.8238
 N-N= 2.228107044023D+02 E-N=-1.134383348570D+03  KE= 2.925460552465D+02
 No NMR shielding tensors so no spin-rotation constants.
 Leave Link  601 at Thu Oct 27 19:35:59 2011, MaxMem=  536870912 cpu:       3.1
 (Enter /system/software/orac/g03_E.01/g03/l701.exe)
 Compute integral first derivatives.
 ... and contract with generalized density number  0.
 Leave Link  701 at Thu Oct 27 19:36:00 2011, MaxMem=  536870912 cpu:       2.9
 (Enter /system/software/orac/g03_E.01/g03/l702.exe)
 L702 exits ... SP integral derivatives will be done elsewhere.
 Leave Link  702 at Thu Oct 27 19:36:00 2011, MaxMem=  536870912 cpu:       0.0
 (Enter /system/software/orac/g03_E.01/g03/l703.exe)
 Compute integral first derivatives, UseDBF=F.
 Integral derivatives from FoFDir, PRISM(SPDF).
 Symmetry not used in FoFDir.
 MinBra= 0 MaxBra= 2 Meth= 1.
 IRaf=       0 NMat=   1 IRICut=       1 DoRegI=T DoRafI=F ISym2E= 0 JSym2E=0.
 Leave Link  703 at Thu Oct 27 19:36:04 2011, MaxMem=  536870912 cpu:      22.7
 (Enter /system/software/orac/g03_E.01/g03/l716.exe)
 Dipole        = 4.85208290D-02 5.16118357D-01-1.66640649D-01
 ***** Axes restored to original set *****
 -------------------------------------------------------------------
 Center     Atomic                   Forces (Hartrees/Bohr)
 Number     Number              X              Y              Z
 -------------------------------------------------------------------
    1          6           0.046019934    0.008076379    0.002889225
    2          6          -0.027472277    0.016889776    0.003780651
    3          6          -0.017622668   -0.008006929   -0.047389310
    4          1          -0.006190110   -0.000923128    0.017164850
    5          1           0.000496264   -0.002741953   -0.019483066
    6          1           0.003058519   -0.004209342    0.018489111
    7          1           0.002983666    0.003428340    0.017818236
    8          9          -0.006078724    0.001348868   -0.017341172
    9          6           0.012920523    0.013405270    0.041522338
   10          1          -0.003860682   -0.010778015   -0.013034326
   11          6          -0.008149482   -0.038321272   -0.006070379
   12          1          -0.000137149    0.011588901   -0.011538923
   13          1           0.004032186    0.010243103    0.013192764
 -------------------------------------------------------------------
 Cartesian Forces:  Max     0.047389310 RMS     0.017643193
 Leave Link  716 at Thu Oct 27 19:36:05 2011, MaxMem=  536870912 cpu:       0.0
 (Enter /system/software/orac/g03_E.01/g03/l103.exe)

 GradGradGradGradGradGradGradGradGradGradGradGradGradGradGradGradGradGrad
 Berny optimization.
 Internal  Forces:  Max     0.027862897 RMS     0.009164917
 Search for a local minimum.
 Step number   1 out of a maximum of  66
 All quantities printed in internal units (Hartrees-Bohrs-Radians)
 Second derivative matrix not updated -- first step.
     Eigenvalues ---    0.00237   0.01215   0.01650   0.02182   0.02681
     Eigenvalues ---    0.02681   0.02729   0.03016   0.03636   0.03918
     Eigenvalues ---    0.09856   0.10238   0.11045   0.16000   0.16000
     Eigenvalues ---    0.16000   0.16148   0.17703   0.20160   0.22000
     Eigenvalues ---    0.24782   0.25670   0.28482   0.28519   0.37230
     Eigenvalues ---    0.37230   0.37230   0.37230   0.37230   0.37230
     Eigenvalues ---    0.37230   0.53930   0.550211000.000001000.00000
     Eigenvalues --- 1000.000001000.000001000.000001000.000001000.00000
     Eigenvalues --- 1000.000001000.000001000.000001000.000001000.00000
     Eigenvalues --- 1000.000001000.000001000.000001000.000001000.00000
     Eigenvalues --- 1000.000001000.000001000.000001000.000001000.00000
     Eigenvalues --- 1000.00000
 RFO step:  Lambda=-1.56994976D-02.
 Linear search not attempted -- first point.
 Iteration  1 RMS(Cart)=  0.05048415 RMS(Int)=  0.00141286
 Iteration  2 RMS(Cart)=  0.00134623 RMS(Int)=  0.00040329
 Iteration  3 RMS(Cart)=  0.00000132 RMS(Int)=  0.00040329
 Iteration  4 RMS(Cart)=  0.00000000 RMS(Int)=  0.00040329
 Variable       Old X    -DE/DX   Delta X   Delta X   Delta X     New X
                                 (Linear)    (Quad)   (Total)
    R1        2.90766  -0.02048   0.00000  -0.07437  -0.07437   2.83329
    R2        2.91270  -0.01637   0.00000  -0.05449  -0.05465   2.85804
    R3        2.02201   0.01754   0.00000   0.04521   0.04521   2.06722
    R4        2.55113   0.01665   0.00000   0.02943   0.02943   2.58056
    R5        2.91270  -0.00839   0.00000  -0.02147  -0.02131   2.89138
    R6        2.02201   0.01732   0.00000   0.04464   0.04464   2.06665
    R7        2.02201   0.01762   0.00000   0.04540   0.04540   2.06741
    R8        2.02201   0.01656   0.00000   0.04268   0.04268   2.06468
    R9        2.91018  -0.02786   0.00000  -0.09260  -0.09260   2.81758
   R10        2.02201   0.01684   0.00000   0.04340   0.04340   2.06540
   R11        2.56096  -0.01721   0.00000  -0.03102  -0.03102   2.52994
   R12        2.02201   0.01606   0.00000   0.04140   0.04140   2.06340
   R13        2.02201   0.01679   0.00000   0.04328   0.04328   2.06529
    A1        2.06869  -0.00135   0.00000   0.00694   0.00695   2.07563
    A2        2.06746  -0.00246   0.00000   0.00455   0.00443   2.07189
    A3        2.11012  -0.00014   0.00000  -0.02220  -0.02301   2.08711
    A4        2.10981  -0.00783   0.00000  -0.05069  -0.05129   2.05853
    A5        1.92088   0.00585   0.00000   0.03572   0.03402   1.95490
    A6        2.11003  -0.00279   0.00000  -0.03773  -0.03797   2.07206
    A7        2.10990  -0.00349   0.00000  -0.03365  -0.03371   2.07619
    A8        2.06810  -0.00482   0.00000  -0.01723  -0.01764   2.05046
    A9        2.06805   0.00144   0.00000   0.00683   0.00655   2.07461
   A10        1.92088   0.00637   0.00000   0.05459   0.05390   1.97477
   A11        2.06234  -0.00252   0.00000  -0.00924  -0.01021   2.05213
   A12        2.06012   0.00154   0.00000   0.00725   0.00695   2.06707
   A13        2.11904  -0.00326   0.00000  -0.03539  -0.03524   2.08380
   A14        2.11034  -0.00045   0.00000  -0.01909  -0.01900   2.09134
   A15        1.92306   0.00433   0.00000   0.04404   0.04354   1.96659
   A16        2.09440  -0.00906   0.00000  -0.04453  -0.04454   2.04986
   A17        2.09440   0.00969   0.00000   0.04109   0.04108   2.13548
   A18        2.09440  -0.00063   0.00000   0.00344   0.00343   2.09782
   A19        2.09440   0.00169   0.00000   0.00961   0.00961   2.10401
   A20        2.09440   0.00283   0.00000   0.01611   0.01610   2.11050
   A21        2.09440  -0.00452   0.00000  -0.02572  -0.02572   2.06867
    D1        2.47033   0.00333   0.00000   0.03027   0.03062   2.50095
    D2       -0.06839   0.00107   0.00000   0.04484   0.04503  -0.02336
    D3        0.06852  -0.00188   0.00000  -0.05024  -0.05052   0.01800
    D4       -2.47020  -0.00414   0.00000  -0.03567  -0.03611  -2.50631
    D5       -0.08000   0.00417   0.00000   0.06934   0.06863  -0.01137
    D6       -2.46690  -0.00213   0.00000  -0.00554  -0.00587  -2.47277
    D7        2.45873   0.00199   0.00000   0.00943   0.00974   2.46847
    D8        0.07182  -0.00431   0.00000  -0.06545  -0.06476   0.00706
    D9       -2.48250  -0.00494   0.00000  -0.04276  -0.04301  -2.52550
   D10        0.07988  -0.00232   0.00000  -0.05014  -0.05008   0.02981
   D11       -0.08068   0.00182   0.00000   0.04116   0.04120  -0.03948
   D12        2.48170   0.00443   0.00000   0.03378   0.03413   2.51583
   D13       -0.46513   0.00200   0.00000   0.01127   0.01177  -0.45336
   D14        2.67646   0.00178   0.00000   0.00310   0.00368   2.68015
   D15        0.75484  -0.00139   0.00000  -0.00973  -0.00975   0.74509
   D16       -2.38675  -0.00162   0.00000  -0.01790  -0.01783  -2.40459
   D17       -2.90770  -0.00115   0.00000  -0.03790  -0.03851  -2.94621
   D18        0.23389  -0.00138   0.00000  -0.04607  -0.04659   0.18730
   D19        3.14159   0.00031   0.00000   0.00875   0.00882  -3.13278
   D20        0.00000   0.00008   0.00000   0.00331   0.00338   0.00338
   D21        0.00000   0.00008   0.00000   0.00058   0.00052   0.00051
   D22       -3.14159  -0.00015   0.00000  -0.00486  -0.00492   3.13667
         Item               Value     Threshold  Converged?
 Maximum Force            0.027863     0.000015     NO 
 RMS     Force            0.009165     0.000010     NO 
 Maximum Displacement     0.168293     0.000060     NO 
 RMS     Displacement     0.050942     0.000040     NO 
 Predicted change in Energy=-8.471688D-03
 GradGradGradGradGradGradGradGradGradGradGradGradGradGradGradGradGradGrad

 Leave Link  103 at Thu Oct 27 19:36:05 2011, MaxMem=  536870912 cpu:       1.0
 (Enter /system/software/orac/g03_E.01/g03/l202.exe)
                          Input orientation:                          
 ---------------------------------------------------------------------
 Center     Atomic     Atomic              Coordinates (Angstroms)
 Number     Number      Type              X           Y           Z
 ---------------------------------------------------------------------
    1          6             0       -0.271033    1.148125    0.022916
    2          6             0        1.224251    1.056730   -0.037954
    3          6             0        0.539791    2.424619    0.000249
    4          1             0       -0.782366    0.849400    0.942682
    5          1             0        1.694411    0.753716   -0.977713
    6          1             0        1.770428    0.714563    0.846074
    7          1             0        0.576257    3.017056    0.917543
    8          9             0       -0.993643    0.829134   -1.091027
    9          6             0        0.500666    3.268814   -1.228114
   10          1             0        0.275284    2.770928   -2.174624
   11          6             0        0.720326    4.589100   -1.197369
   12          1             0        0.676350    5.180558   -2.114158
   13          1             0        0.942141    5.099786   -0.256923
 ---------------------------------------------------------------------
                    Distance matrix (angstroms):
                    1          2          3          4          5
     1  C    0.000000
     2  C    1.499310   0.000000
     3  C    1.512411   1.530054   0.000000
     4  H    1.093924   2.243022   2.262210   0.000000
     5  H    2.240487   1.093624   2.254212   3.135522   0.000000
     6  H    2.243463   1.094027   2.270281   2.558178   1.825791
     7  H    2.238562   2.275027   1.092584   2.558363   3.156734
     8  F    1.365573   2.465729   2.467363   2.044755   2.691498
     9  C    2.580294   2.614072   1.490997   3.494580   2.795255
    10  H    2.785881   2.899029   2.218101   3.811626   2.741471
    11  C    3.783146   3.751775   2.480294   4.563250   3.963239
    12  H    4.661023   4.649384   3.476286   5.498277   4.682402
    13  H    4.143154   4.058797   2.717452   4.741177   4.469203
                    6          7          8          9         10
     6  H    0.000000
     7  H    2.594730   0.000000
     8  F    3.377215   3.359456   0.000000
     9  C    3.526861   2.161698   2.864227   0.000000
    10  H    3.948254   3.116515   2.560258   1.092964   0.000000
    11  C    4.504487   2.639115   4.133563   1.338786   2.111597
    12  H    5.468554   3.725852   4.771851   2.114404   2.443528
    13  H    4.597047   2.418886   4.762506   2.119096   3.089637
                   11         12         13
    11  C    0.000000
    12  H    1.091906   0.000000
    13  H    1.092904   1.877895   0.000000
 Stoichiometry    C5H7F
 Framework group  C1[X(C5H7F)]
 Deg. of freedom    33
 Full point group                 C1
 Largest Abelian subgroup         C1      NOp   1
 Largest concise Abelian subgroup C1      NOp   1
                         Standard orientation:                         
 ---------------------------------------------------------------------
 Center     Atomic     Atomic              Coordinates (Angstroms)
 Number     Number      Type              X           Y           Z
 ---------------------------------------------------------------------
    1          6             0       -1.251681    0.032891   -0.439313
    2          6             0       -0.959879    1.140935    0.527653
    3          6             0        0.157505    0.574918   -0.351063
    4          1             0       -1.858807    0.248387   -1.323411
    5          1             0       -0.927137    0.910824    1.596292
    6          1             0       -1.342193    2.143729    0.315205
    7          1             0        0.526816    1.163451   -1.194258
    8          9             0       -1.487265   -1.219950    0.050258
    9          6             0        1.212899   -0.286619    0.254716
   10          1             0        0.893190   -1.042977    0.976021
   11          6             0        2.507576   -0.164166   -0.063348
   12          1             0        3.255177   -0.816559    0.392430
   13          1             0        2.839830    0.584933   -0.786465
 ---------------------------------------------------------------------
 Rotational constants (GHZ):      6.9023412      2.4412433      2.0289997
 Leave Link  202 at Thu Oct 27 19:36:05 2011, MaxMem=  536870912 cpu:       0.2
 (Enter /system/software/orac/g03_E.01/g03/l301.exe)
 Standard basis: CC-pVDZ (5D, 7F)
 There are   119 symmetry adapted basis functions of A   symmetry.
 Integral buffers will be    131072 words long.
 Raffenetti 2 integral format.
 Two-electron integral symmetry is turned on.
   119 basis functions,   247 primitive gaussians,   125 cartesian basis functions
    23 alpha electrons       23 beta electrons
       nuclear repulsion energy       225.1430845986 Hartrees.
 IExCor= 402 DFT=T Ex=B+HF Corr=LYP ExCW=0 ScaHFX=  0.200000
 ScaDFX=  0.800000  0.720000  1.000000  0.810000
 IRadAn=      5 IRanWt=     -1 IRanGd=            0 ICorTp=0
 NAtoms=   13 NActive=   13 NUniq=   13 SFac= 7.50D-01 NAtFMM=   80 NAOKFM=F Big=F
 Leave Link  301 at Thu Oct 27 19:36:06 2011, MaxMem=  536870912 cpu:       0.1
 (Enter /system/software/orac/g03_E.01/g03/l302.exe)
 NPDir=0 NMtPBC=     1 NCelOv=     1 NCel=       1 NClECP=     1 NCelD=      1
         NCelK=      1 NCelE2=     1 NClLst=     1 CellRange=     0.0.
 One-electron integrals computed using PRISM.
 NBasis=   119 RedAO= T  NBF=   119
 NBsUse=   119 1.00D-06 NBFU=   119
 Precomputing XC quadrature grid using
 IXCGrd= 2 IRadAn=           5 IRanWt=          -1 IRanGd=           0.
 NRdTot=    1073 NPtTot=      287242 NUsed=      294806 NTot=      294838
 NSgBfM=   125   125   125   125.
 Leave Link  302 at Thu Oct 27 19:36:07 2011, MaxMem=  536870912 cpu:       4.7
 (Enter /system/software/orac/g03_E.01/g03/l303.exe)
 DipDrv:  MaxL=1.
 Leave Link  303 at Thu Oct 27 19:36:07 2011, MaxMem=  536870912 cpu:       0.1
 (Enter /system/software/orac/g03_E.01/g03/l401.exe)
 Initial guess read from the read-write file:
 Guess basis will be translated and rotated to current coordinates.
 Initial guess orbital symmetries:
       Occupied  (A) (A) (A) (A) (A) (A) (A) (A) (A) (A) (A) (A)
                 (A) (A) (A) (A) (A) (A) (A) (A) (A) (A) (A)
       Virtual   (A) (A) (A) (A) (A) (A) (A) (A) (A) (A) (A) (A)
                 (A) (A) (A) (A) (A) (A) (A) (A) (A) (A) (A) (A)
                 (A) (A) (A) (A) (A) (A) (A) (A) (A) (A) (A) (A)
                 (A) (A) (A) (A) (A) (A) (A) (A) (A) (A) (A) (A)
                 (A) (A) (A) (A) (A) (A) (A) (A) (A) (A) (A) (A)
                 (A) (A) (A) (A) (A) (A) (A) (A) (A) (A) (A) (A)
                 (A) (A) (A) (A) (A) (A) (A) (A) (A) (A) (A) (A)
                 (A) (A) (A) (A) (A) (A) (A) (A) (A) (A) (A) (A)
 The electronic state of the initial guess is 1-A.
 Generating alternative initial guess.
 Harris functional with IExCor=  402 diagonalized for initial guess.
 ExpMin= 1.22D-01 ExpMax= 1.47D+04 ExpMxC= 5.03D+02 IAcc=3 IRadAn=         5 AccDes= 0.00D+00
 HarFok:  IExCor= 402 AccDes= 0.00D+00 IRadAn=         5 IDoV=1
 ScaDFX=  1.000000  1.000000  1.000000  1.000000
 Harris En= -294.607788588912    
 Leave Link  401 at Thu Oct 27 19:36:08 2011, MaxMem=  536870912 cpu:       5.5
 (Enter /system/software/orac/g03_E.01/g03/l502.exe)
 Closed shell SCF:
 Requested convergence on RMS density matrix=1.00D-08 within 128 cycles.
 Requested convergence on MAX density matrix=1.00D-06.
 Requested convergence on             energy=1.00D-06.
 No special actions if energy rises.
 Using DIIS extrapolation, IDIIS=  1040.
 Integral symmetry usage will be decided dynamically.
       294805 words used for storage of precomputed grid.
 Keep R1 integrals in memory in canonical form, NReq=    33201379.
 IEnd=    369490 IEndB=    369490 NGot= 536870912 MDV= 505522049
 LenX= 505522049
 Symmetry not used in FoFDir.
 MinBra= 0 MaxBra= 2 Meth= 1.
 IRaf=       0 NMat=   1 IRICut=       1 DoRegI=T DoRafI=F ISym2E= 0 JSym2E=0.
 Integral accuracy reduced to 1.0D-05 until final iterations.

 Cycle   1  Pass 0  IDiag  1:
 E= -294.528535927810    
 DIIS: error= 3.29D-03 at cycle   1 NSaved=   1.
 NSaved= 1 IEnMin= 1 EnMin= -294.528535927810     IErMin= 1 ErrMin= 3.29D-03
 ErrMax= 3.29D-03 EMaxC= 1.00D-01 BMatC= 3.20D-03 BMatP= 3.20D-03
 IDIUse=3 WtCom= 9.67D-01 WtEn= 3.29D-02
 Coeff-Com:  0.100D+01
 Coeff-En:   0.100D+01
 Coeff:      0.100D+01
 Gap=     0.256 Goal=   None    Shift=    0.000
 GapD=    0.256 DampG=1.000 DampE=1.000 DampFc=1.0000 IDamp=-1.
 RMSDP=8.07D-04 MaxDP=1.21D-02              OVMax= 2.38D-02

 Cycle   2  Pass 0  IDiag  1:
 E= -294.533575571785     Delta-E=       -0.005039643976 Rises=F Damp=F
 DIIS: error= 8.81D-04 at cycle   2 NSaved=   2.
 NSaved= 2 IEnMin= 2 EnMin= -294.533575571785     IErMin= 2 ErrMin= 8.81D-04
 ErrMax= 8.81D-04 EMaxC= 1.00D-01 BMatC= 1.86D-04 BMatP= 3.20D-03
 IDIUse=3 WtCom= 9.91D-01 WtEn= 8.81D-03
 Coeff-Com:  0.453D-01 0.955D+00
 Coeff-En:   0.000D+00 0.100D+01
 Coeff:      0.449D-01 0.955D+00
 Gap=     0.253 Goal=   None    Shift=    0.000
 RMSDP=2.17D-04 MaxDP=4.25D-03 DE=-5.04D-03 OVMax= 1.06D-02

 Cycle   3  Pass 0  IDiag  1:
 E= -294.533428050781     Delta-E=        0.000147521004 Rises=F Damp=F
 DIIS: error= 1.36D-03 at cycle   3 NSaved=   3.
 NSaved= 3 IEnMin= 2 EnMin= -294.533575571785     IErMin= 2 ErrMin= 8.81D-04
 ErrMax= 1.36D-03 EMaxC= 1.00D-01 BMatC= 3.42D-04 BMatP= 1.86D-04
 IDIUse=3 WtCom= 2.13D-01 WtEn= 7.87D-01
 Coeff-Com: -0.295D-01 0.593D+00 0.437D+00
 Coeff-En:   0.000D+00 0.632D+00 0.368D+00
 Coeff:     -0.629D-02 0.624D+00 0.382D+00
 Gap=     0.254 Goal=   None    Shift=    0.000
 RMSDP=1.36D-04 MaxDP=2.77D-03 DE= 1.48D-04 OVMax= 7.68D-03

 Cycle   4  Pass 0  IDiag  1:
 E= -294.533758744601     Delta-E=       -0.000330693819 Rises=F Damp=F
 DIIS: error= 1.51D-04 at cycle   4 NSaved=   4.
 NSaved= 4 IEnMin= 4 EnMin= -294.533758744601     IErMin= 4 ErrMin= 1.51D-04
 ErrMax= 1.51D-04 EMaxC= 1.00D-01 BMatC= 4.13D-06 BMatP= 1.86D-04
 IDIUse=3 WtCom= 9.98D-01 WtEn= 1.51D-03
 Coeff-Com: -0.150D-01 0.194D+00 0.141D+00 0.680D+00
 Coeff-En:   0.000D+00 0.000D+00 0.000D+00 0.100D+01
 Coeff:     -0.150D-01 0.194D+00 0.141D+00 0.680D+00
 Gap=     0.254 Goal=   None    Shift=    0.000
 RMSDP=2.37D-05 MaxDP=6.31D-04 DE=-3.31D-04 OVMax= 1.47D-03

 Cycle   5  Pass 0  IDiag  1:
 E= -294.533761746681     Delta-E=       -0.000003002080 Rises=F Damp=F
 DIIS: error= 9.83D-05 at cycle   5 NSaved=   5.
 NSaved= 5 IEnMin= 5 EnMin= -294.533761746681     IErMin= 5 ErrMin= 9.83D-05
 ErrMax= 9.83D-05 EMaxC= 1.00D-01 BMatC= 1.54D-06 BMatP= 4.13D-06
 IDIUse=1 WtCom= 1.00D+00 WtEn= 0.00D+00
 Coeff-Com: -0.526D-02 0.487D-01 0.375D-01 0.392D+00 0.527D+00
 Coeff:     -0.526D-02 0.487D-01 0.375D-01 0.392D+00 0.527D+00
 Gap=     0.254 Goal=   None    Shift=    0.000
 RMSDP=9.68D-06 MaxDP=2.48D-04 DE=-3.00D-06 OVMax= 5.33D-04

 Initial convergence to 1.0D-05 achieved.  Increase integral accuracy.
 Cycle   6  Pass 1  IDiag  1:
 E= -294.533761685877     Delta-E=        0.000000060803 Rises=F Damp=F
 DIIS: error= 1.32D-05 at cycle   1 NSaved=   1.
 NSaved= 1 IEnMin= 1 EnMin= -294.533761685877     IErMin= 1 ErrMin= 1.32D-05
 ErrMax= 1.32D-05 EMaxC= 1.00D-01 BMatC= 3.94D-08 BMatP= 3.94D-08
 IDIUse=1 WtCom= 1.00D+00 WtEn= 0.00D+00
 Coeff-Com:  0.100D+01
 Coeff:      0.100D+01
 Gap=     0.254 Goal=   None    Shift=    0.000
 RMSDP=9.68D-06 MaxDP=2.48D-04 DE= 6.08D-08 OVMax= 1.15D-04

 Cycle   7  Pass 1  IDiag  1:
 E= -294.533761660888     Delta-E=        0.000000024989 Rises=F Damp=F
 DIIS: error= 1.39D-05 at cycle   2 NSaved=   2.
 NSaved= 2 IEnMin= 1 EnMin= -294.533761685877     IErMin= 1 ErrMin= 1.32D-05
 ErrMax= 1.39D-05 EMaxC= 1.00D-01 BMatC= 7.43D-08 BMatP= 3.94D-08
 IDIUse=1 WtCom= 1.00D+00 WtEn= 0.00D+00
 Coeff-Com:  0.581D+00 0.419D+00
 Coeff:      0.581D+00 0.419D+00
 Gap=     0.254 Goal=   None    Shift=    0.000
 RMSDP=2.19D-06 MaxDP=4.15D-05 DE= 2.50D-08 OVMax= 9.13D-05

 Cycle   8  Pass 1  IDiag  1:
 E= -294.533761717882     Delta-E=       -0.000000056994 Rises=F Damp=F
 DIIS: error= 2.91D-06 at cycle   3 NSaved=   3.
 NSaved= 3 IEnMin= 3 EnMin= -294.533761717882     IErMin= 3 ErrMin= 2.91D-06
 ErrMax= 2.91D-06 EMaxC= 1.00D-01 BMatC= 1.31D-09 BMatP= 3.94D-08
 IDIUse=1 WtCom= 1.00D+00 WtEn= 0.00D+00
 Coeff-Com:  0.244D+00 0.202D+00 0.555D+00
 Coeff:      0.244D+00 0.202D+00 0.555D+00
 Gap=     0.254 Goal=   None    Shift=    0.000
 RMSDP=3.31D-07 MaxDP=1.04D-05 DE=-5.70D-08 OVMax= 2.44D-05

 Cycle   9  Pass 1  IDiag  1:
 E= -294.533761719038     Delta-E=       -0.000000001156 Rises=F Damp=F
 DIIS: error= 1.16D-06 at cycle   4 NSaved=   4.
 NSaved= 4 IEnMin= 4 EnMin= -294.533761719038     IErMin= 4 ErrMin= 1.16D-06
 ErrMax= 1.16D-06 EMaxC= 1.00D-01 BMatC= 2.22D-10 BMatP= 1.31D-09
 IDIUse=1 WtCom= 1.00D+00 WtEn= 0.00D+00
 Coeff-Com:  0.650D-01 0.610D-01 0.318D+00 0.556D+00
 Coeff:      0.650D-01 0.610D-01 0.318D+00 0.556D+00
 Gap=     0.254 Goal=   None    Shift=    0.000
 RMSDP=1.30D-07 MaxDP=3.21D-06 DE=-1.16D-09 OVMax= 7.94D-06

 Cycle  10  Pass 1  IDiag  1:
 E= -294.533761719241     Delta-E=       -0.000000000203 Rises=F Damp=F
 DIIS: error= 2.93D-07 at cycle   5 NSaved=   5.
 NSaved= 5 IEnMin= 5 EnMin= -294.533761719241     IErMin= 5 ErrMin= 2.93D-07
 ErrMax= 2.93D-07 EMaxC= 1.00D-01 BMatC= 2.05D-11 BMatP= 2.22D-10
 IDIUse=1 WtCom= 1.00D+00 WtEn= 0.00D+00
 Coeff-Com:  0.202D-02 0.535D-02 0.977D-01 0.290D+00 0.605D+00
 Coeff:      0.202D-02 0.535D-02 0.977D-01 0.290D+00 0.605D+00
 Gap=     0.254 Goal=   None    Shift=    0.000
 RMSDP=4.11D-08 MaxDP=6.21D-07 DE=-2.03D-10 OVMax= 1.62D-06

 Cycle  11  Pass 1  IDiag  1:
 E= -294.533761719258     Delta-E=       -0.000000000016 Rises=F Damp=F
 DIIS: error= 8.05D-08 at cycle   6 NSaved=   6.
 NSaved= 6 IEnMin= 6 EnMin= -294.533761719258     IErMin= 6 ErrMin= 8.05D-08
 ErrMax= 8.05D-08 EMaxC= 1.00D-01 BMatC= 1.51D-12 BMatP= 2.05D-11
 IDIUse=1 WtCom= 1.00D+00 WtEn= 0.00D+00
 Coeff-Com: -0.497D-02-0.294D-02 0.163D-01 0.805D-01 0.289D+00 0.622D+00
 Coeff:     -0.497D-02-0.294D-02 0.163D-01 0.805D-01 0.289D+00 0.622D+00
 Gap=     0.254 Goal=   None    Shift=    0.000
 RMSDP=1.06D-08 MaxDP=1.87D-07 DE=-1.64D-11 OVMax= 4.15D-07

 Cycle  12  Pass 1  IDiag  1:
 E= -294.533761719259     Delta-E=       -0.000000000002 Rises=F Damp=F
 DIIS: error= 1.17D-08 at cycle   7 NSaved=   7.
 NSaved= 7 IEnMin= 7 EnMin= -294.533761719259     IErMin= 7 ErrMin= 1.17D-08
 ErrMax= 1.17D-08 EMaxC= 1.00D-01 BMatC= 4.37D-14 BMatP= 1.51D-12
 IDIUse=1 WtCom= 1.00D+00 WtEn= 0.00D+00
 Coeff-Com: -0.218D-02-0.143D-02 0.330D-02 0.235D-01 0.967D-01 0.258D+00
 Coeff-Com:  0.622D+00
 Coeff:     -0.218D-02-0.143D-02 0.330D-02 0.235D-01 0.967D-01 0.258D+00
 Coeff:      0.622D+00
 Gap=     0.254 Goal=   None    Shift=    0.000
 RMSDP=2.06D-09 MaxDP=4.85D-08 DE=-1.71D-12 OVMax= 8.35D-08

 SCF Done:  E(RB+HF-LYP) =  -294.533761719     A.U. after   12 cycles
             Convg  =    0.2065D-08             -V/T =  2.0069
             S**2   =   0.0000
 KE= 2.925296961079D+02 PE=-1.139064373945D+03 EE= 3.268578315189D+02
 Leave Link  502 at Thu Oct 27 19:36:19 2011, MaxMem=  536870912 cpu:      89.2
 (Enter /system/software/orac/g03_E.01/g03/l701.exe)
 Compute integral first derivatives.
 ... and contract with generalized density number  0.
 Leave Link  701 at Thu Oct 27 19:36:20 2011, MaxMem=  536870912 cpu:       3.0
 (Enter /system/software/orac/g03_E.01/g03/l702.exe)
 L702 exits ... SP integral derivatives will be done elsewhere.
 Leave Link  702 at Thu Oct 27 19:36:20 2011, MaxMem=  536870912 cpu:       0.0
 (Enter /system/software/orac/g03_E.01/g03/l703.exe)
 Compute integral first derivatives, UseDBF=F.
 Integral derivatives from FoFDir, PRISM(SPDF).
 Symmetry not used in FoFDir.
 MinBra= 0 MaxBra= 2 Meth= 1.
 IRaf=       0 NMat=   1 IRICut=       1 DoRegI=T DoRafI=F ISym2E= 0 JSym2E=0.
 Leave Link  703 at Thu Oct 27 19:36:26 2011, MaxMem=  536870912 cpu:      22.2
 (Enter /system/software/orac/g03_E.01/g03/l716.exe)
 Dipole        =-2.17122270D-02 5.60249640D-01-1.64246705D-01
 ***** Axes restored to original set *****
 -------------------------------------------------------------------
 Center     Atomic                   Forces (Hartrees/Bohr)
 Number     Number              X              Y              Z
 -------------------------------------------------------------------
    1          6           0.009698270    0.000897723    0.008085609
    2          6           0.001037072   -0.002369092    0.000877872
    3          6          -0.006218954    0.004102268   -0.009631936
    4          1          -0.001235837    0.000570101   -0.000335727
    5          1          -0.002862463    0.001225542   -0.001473869
    6          1          -0.001978013    0.000700833    0.000827082
    7          1           0.001921186   -0.003168038    0.002942634
    8          9          -0.002506491   -0.001871265   -0.005647878
    9          6           0.002948586    0.000858192    0.007748031
   10          1          -0.000009891   -0.001240631   -0.000211052
   11          6          -0.001532072   -0.003543713   -0.003664250
   12          1           0.000568044    0.001814634    0.000861072
   13          1           0.000170561    0.002023447   -0.000377589
 -------------------------------------------------------------------
 Cartesian Forces:  Max     0.009698270 RMS     0.003605436
 Leave Link  716 at Thu Oct 27 19:36:26 2011, MaxMem=  536870912 cpu:       0.0
 (Enter /system/software/orac/g03_E.01/g03/l103.exe)

 GradGradGradGradGradGradGradGradGradGradGradGradGradGradGradGradGradGrad
 Berny optimization.
 Internal  Forces:  Max     0.006370602 RMS     0.001826257
 Search for a local minimum.
 Step number   2 out of a maximum of  66
 All quantities printed in internal units (Hartrees-Bohrs-Radians)
 Update second derivatives using D2CorX and points  1  2
 Trust test= 1.07D+00 RLast= 2.81D-01 DXMaxT set to 4.24D-01
     Eigenvalues ---    0.00237   0.01246   0.01611   0.02102   0.02681
     Eigenvalues ---    0.02681   0.02710   0.03084   0.03607   0.04147
     Eigenvalues ---    0.09788   0.10124   0.11022   0.15673   0.16000
     Eigenvalues ---    0.16023   0.16323   0.17616   0.19989   0.20931
     Eigenvalues ---    0.24604   0.25659   0.28325   0.28606   0.37161
     Eigenvalues ---    0.37230   0.37230   0.37230   0.37230   0.37230
     Eigenvalues ---    0.39372   0.53689   0.548751000.000001000.00000
     Eigenvalues --- 1000.000001000.000001000.000001000.000001000.00000
     Eigenvalues --- 1000.000001000.000001000.000001000.000001000.00000
     Eigenvalues --- 1000.000001000.000001000.000001000.000001000.00000
     Eigenvalues --- 1000.000001000.000001000.000001000.000001000.00000
     Eigenvalues --- 1000.00000
 RFO step:  Lambda=-1.10908488D-03.
 Quartic linear search produced a step of  0.17335.
 Iteration  1 RMS(Cart)=  0.03964976 RMS(Int)=  0.00106560
 Iteration  2 RMS(Cart)=  0.00123150 RMS(Int)=  0.00028688
 Iteration  3 RMS(Cart)=  0.00000120 RMS(Int)=  0.00028688
 Iteration  4 RMS(Cart)=  0.00000000 RMS(Int)=  0.00028688
 Variable       Old X    -DE/DX   Delta X   Delta X   Delta X     New X
                                 (Linear)    (Quad)   (Total)
    R1        2.83329  -0.00384  -0.01289  -0.01121  -0.02394   2.80935
    R2        2.85804  -0.00075  -0.00947   0.00391  -0.00567   2.85237
    R3        2.06722   0.00014   0.00784  -0.00525   0.00259   2.06980
    R4        2.58056   0.00637   0.00510   0.00993   0.01503   2.59559
    R5        2.89138   0.00040  -0.00369   0.00952   0.00577   2.89716
    R6        2.06665  -0.00030   0.00774  -0.00657   0.00117   2.06782
    R7        2.06741  -0.00054   0.00787  -0.00740   0.00047   2.06788
    R8        2.06468   0.00082   0.00740  -0.00281   0.00459   2.06927
    R9        2.81758  -0.00370  -0.01605  -0.00322  -0.01927   2.79831
   R10        2.06540   0.00075   0.00752  -0.00311   0.00442   2.06982
   R11        2.52994   0.00009  -0.00538   0.00401  -0.00137   2.52857
   R12        2.06340   0.00024   0.00718  -0.00447   0.00271   2.06611
   R13        2.06529   0.00066   0.00750  -0.00339   0.00411   2.06940
    A1        2.07563   0.00063   0.00120   0.01533   0.01671   2.09234
    A2        2.07189  -0.00112   0.00077  -0.01513  -0.01449   2.05740
    A3        2.08711   0.00047  -0.00399  -0.00025  -0.00453   2.08258
    A4        2.05853  -0.00102  -0.00889   0.00882  -0.00008   2.05845
    A5        1.95490   0.00019   0.00590  -0.00762  -0.00203   1.95287
    A6        2.07206  -0.00066  -0.00658  -0.01443  -0.02115   2.05091
    A7        2.07619  -0.00166  -0.00584  -0.00401  -0.00982   2.06637
    A8        2.05046  -0.00141  -0.00306  -0.00833  -0.01154   2.03892
    A9        2.07461  -0.00033   0.00114  -0.00136  -0.00026   2.07435
   A10        1.97477   0.00234   0.00934   0.01653   0.02569   2.00046
   A11        2.05213  -0.00159  -0.00177  -0.00251  -0.00532   2.04682
   A12        2.06707   0.00124   0.00121   0.01521   0.01594   2.08302
   A13        2.08380  -0.00144  -0.00611  -0.03167  -0.03777   2.04603
   A14        2.09134  -0.00042  -0.00329  -0.00821  -0.01141   2.07993
   A15        1.96659   0.00195   0.00755   0.02132   0.02792   1.99451
   A16        2.04986  -0.00404  -0.00772  -0.01737  -0.02510   2.02476
   A17        2.13548   0.00604   0.00712   0.02658   0.03370   2.16918
   A18        2.09782  -0.00200   0.00059  -0.00920  -0.00861   2.08921
   A19        2.10401   0.00150   0.00167   0.00959   0.01126   2.11526
   A20        2.11050   0.00127   0.00279   0.00702   0.00981   2.12031
   A21        2.06867  -0.00277  -0.00446  -0.01660  -0.02106   2.04761
    D1        2.50095   0.00054   0.00531   0.00730   0.01263   2.51358
    D2       -0.02336  -0.00030   0.00781   0.00493   0.01273  -0.01063
    D3        0.01800   0.00094  -0.00876   0.02202   0.01319   0.03120
    D4       -2.50631   0.00011  -0.00626   0.01966   0.01329  -2.49302
    D5       -0.01137   0.00257   0.01190   0.06073   0.07233   0.06096
    D6       -2.47277  -0.00056  -0.00102   0.00156   0.00053  -2.47224
    D7        2.46847   0.00205   0.00169   0.05953   0.06113   2.52960
    D8        0.00706  -0.00108  -0.01123   0.00036  -0.01067  -0.00361
    D9       -2.52550  -0.00197  -0.00746  -0.00467  -0.01242  -2.53793
   D10        0.02981  -0.00117  -0.00868  -0.03275  -0.04110  -0.01129
   D11       -0.03948  -0.00016   0.00714   0.01214   0.01905  -0.02043
   D12        2.51583   0.00063   0.00592  -0.01594  -0.00963   2.50620
   D13       -0.45336   0.00081   0.00204  -0.04332  -0.04072  -0.49409
   D14        2.68015   0.00080   0.00064  -0.04216  -0.04095   2.63920
   D15        0.74509  -0.00061  -0.00169  -0.04873  -0.05034   0.69475
   D16       -2.40459  -0.00063  -0.00309  -0.04757  -0.05057  -2.45515
   D17       -2.94621  -0.00087  -0.00668  -0.09103  -0.09836  -3.04457
   D18        0.18730  -0.00089  -0.00808  -0.08987  -0.09858   0.08872
   D19       -3.13278  -0.00012   0.00153  -0.00709  -0.00555  -3.13833
   D20        0.00338  -0.00007   0.00059  -0.00388  -0.00329   0.00009
   D21        0.00051  -0.00014   0.00009  -0.00593  -0.00585  -0.00533
   D22        3.13667  -0.00010  -0.00085  -0.00272  -0.00358   3.13309
         Item               Value     Threshold  Converged?
 Maximum Force            0.006371     0.000015     NO 
 RMS     Force            0.001826     0.000010     NO 
 Maximum Displacement     0.144978     0.000060     NO 
 RMS     Displacement     0.039745     0.000040     NO 
 Predicted change in Energy=-8.064783D-04
 GradGradGradGradGradGradGradGradGradGradGradGradGradGradGradGradGradGrad

 Leave Link  103 at Thu Oct 27 19:36:26 2011, MaxMem=  536870912 cpu:       0.2
 (Enter /system/software/orac/g03_E.01/g03/l202.exe)
                          Input orientation:                          
 ---------------------------------------------------------------------
 Center     Atomic     Atomic              Coordinates (Angstroms)
 Number     Number      Type              X           Y           Z
 ---------------------------------------------------------------------
    1          6             0       -0.267120    1.152061    0.031075
    2          6             0        1.213917    1.050065   -0.047863
    3          6             0        0.541204    2.426574    0.007820
    4          1             0       -0.785777    0.862530    0.951309
    5          1             0        1.649617    0.751859   -1.006302
    6          1             0        1.758492    0.692533    0.831366
    7          1             0        0.622495    2.986390    0.945398
    8          9             0       -0.993720    0.830269   -1.089226
    9          6             0        0.527224    3.272788   -1.207291
   10          1             0        0.352003    2.750809   -2.154138
   11          6             0        0.702758    4.599281   -1.204076
   12          1             0        0.679705    5.175828   -2.132761
   13          1             0        0.872065    5.151541   -0.273729
 ---------------------------------------------------------------------
                    Distance matrix (angstroms):
                    1          2          3          4          5
     1  C    0.000000
     2  C    1.486643   0.000000
     3  C    1.509408   1.533108   0.000000
     4  H    1.095292   2.243277   2.257717   0.000000
     5  H    2.215896   1.094242   2.249821   3.126601   0.000000
     6  H    2.225924   1.094274   2.273085   2.552761   1.841847
     7  H    2.234315   2.255150   1.095013   2.548342   3.139624
     8  F    1.373525   2.450798   2.471374   2.051357   2.645800
     9  C    2.581088   2.599292   1.480800   3.491830   2.766811
    10  H    2.777492   2.841095   2.194308   3.808405   2.645209
    11  C    3.788084   3.767632   2.493080   4.563412   3.967154
    12  H    4.665765   4.653397   3.487071   5.501243   4.667027
    13  H    4.169711   4.121891   2.759381   4.758653   4.527522
                    6          7          8          9         10
     6  H    0.000000
     7  H    2.562279   0.000000
     8  F    3.358917   3.376492   0.000000
     9  C    3.511390   2.173745   2.879776   0.000000
    10  H    3.889466   3.120222   2.575554   1.095301   0.000000
    11  C    4.529931   2.688512   4.134813   1.338061   2.107723
    12  H    5.481767   3.777827   4.772127   2.121628   2.447154
    13  H    4.678647   2.497285   4.776984   2.126068   3.093528
                   11         12         13
    11  C    0.000000
    12  H    1.093341   0.000000
    13  H    1.095081   1.869116   0.000000
 Stoichiometry    C5H7F
 Framework group  C1[X(C5H7F)]
 Deg. of freedom    33
 Full point group                 C1
 Largest Abelian subgroup         C1      NOp   1
 Largest concise Abelian subgroup C1      NOp   1
                         Standard orientation:                         
 ---------------------------------------------------------------------
 Center     Atomic     Atomic              Coordinates (Angstroms)
 Number     Number      Type              X           Y           Z
 ---------------------------------------------------------------------
    1          6             0       -1.249166    0.037223   -0.444380
    2          6             0       -0.971592    1.121004    0.534639
    3          6             0        0.156091    0.580429   -0.352227
    4          1             0       -1.848352    0.248159   -1.336651
    5          1             0       -0.939954    0.849132    1.594097
    6          1             0       -1.369979    2.119843    0.332046
    7          1             0        0.500995    1.221286   -1.170394
    8          9             0       -1.484646   -1.224740    0.044057
    9          6             0        1.217656   -0.252596    0.257625
   10          1             0        0.887925   -0.972835    1.014075
   11          6             0        2.513842   -0.177514   -0.065903
   12          1             0        3.255802   -0.820391    0.415343
   13          1             0        2.874381    0.526183   -0.823547
 ---------------------------------------------------------------------
 Rotational constants (GHZ):      6.9384071      2.4284660      2.0280310
 Leave Link  202 at Thu Oct 27 19:36:27 2011, MaxMem=  536870912 cpu:       0.2
 (Enter /system/software/orac/g03_E.01/g03/l301.exe)
 Standard basis: CC-pVDZ (5D, 7F)
 There are   119 symmetry adapted basis functions of A   symmetry.
 Integral buffers will be    131072 words long.
 Raffenetti 2 integral format.
 Two-electron integral symmetry is turned on.
   119 basis functions,   247 primitive gaussians,   125 cartesian basis functions
    23 alpha electrons       23 beta electrons
       nuclear repulsion energy       225.1971193184 Hartrees.
 IExCor= 402 DFT=T Ex=B+HF Corr=LYP ExCW=0 ScaHFX=  0.200000
 ScaDFX=  0.800000  0.720000  1.000000  0.810000
 IRadAn=      5 IRanWt=     -1 IRanGd=            0 ICorTp=0
 NAtoms=   13 NActive=   13 NUniq=   13 SFac= 7.50D-01 NAtFMM=   80 NAOKFM=F Big=F
 Leave Link  301 at Thu Oct 27 19:36:27 2011, MaxMem=  536870912 cpu:       0.1
 (Enter /system/software/orac/g03_E.01/g03/l302.exe)
 NPDir=0 NMtPBC=     1 NCelOv=     1 NCel=       1 NClECP=     1 NCelD=      1
         NCelK=      1 NCelE2=     1 NClLst=     1 CellRange=     0.0.
 One-electron integrals computed using PRISM.
 NBasis=   119 RedAO= T  NBF=   119
 NBsUse=   119 1.00D-06 NBFU=   119
 Precomputing XC quadrature grid using
 IXCGrd= 2 IRadAn=           5 IRanWt=          -1 IRanGd=           0.
 NRdTot=    1073 NPtTot=      287242 NUsed=      294806 NTot=      294838
 NSgBfM=   125   125   125   125.
 Leave Link  302 at Thu Oct 27 19:36:28 2011, MaxMem=  536870912 cpu:       3.9
 (Enter /system/software/orac/g03_E.01/g03/l303.exe)
 DipDrv:  MaxL=1.
 Leave Link  303 at Thu Oct 27 19:36:28 2011, MaxMem=  536870912 cpu:       0.1
 (Enter /system/software/orac/g03_E.01/g03/l401.exe)
 Initial guess read from the read-write file:
 Guess basis will be translated and rotated to current coordinates.
 Initial guess orbital symmetries:
       Occupied  (A) (A) (A) (A) (A) (A) (A) (A) (A) (A) (A) (A)
                 (A) (A) (A) (A) (A) (A) (A) (A) (A) (A) (A)
       Virtual   (A) (A) (A) (A) (A) (A) (A) (A) (A) (A) (A) (A)
                 (A) (A) (A) (A) (A) (A) (A) (A) (A) (A) (A) (A)
                 (A) (A) (A) (A) (A) (A) (A) (A) (A) (A) (A) (A)
                 (A) (A) (A) (A) (A) (A) (A) (A) (A) (A) (A) (A)
                 (A) (A) (A) (A) (A) (A) (A) (A) (A) (A) (A) (A)
                 (A) (A) (A) (A) (A) (A) (A) (A) (A) (A) (A) (A)
                 (A) (A) (A) (A) (A) (A) (A) (A) (A) (A) (A) (A)
                 (A) (A) (A) (A) (A) (A) (A) (A) (A) (A) (A) (A)
 The electronic state of the initial guess is 1-A.
 Generating alternative initial guess.
 Harris functional with IExCor=  402 diagonalized for initial guess.
 ExpMin= 1.22D-01 ExpMax= 1.47D+04 ExpMxC= 5.03D+02 IAcc=3 IRadAn=         5 AccDes= 0.00D+00
 HarFok:  IExCor= 402 AccDes= 0.00D+00 IRadAn=         5 IDoV=1
 ScaDFX=  1.000000  1.000000  1.000000  1.000000
 Harris En= -294.609031531530    
 Leave Link  401 at Thu Oct 27 19:36:29 2011, MaxMem=  536870912 cpu:       5.2
 (Enter /system/software/orac/g03_E.01/g03/l502.exe)
 Closed shell SCF:
 Requested convergence on RMS density matrix=1.00D-08 within 128 cycles.
 Requested convergence on MAX density matrix=1.00D-06.
 Requested convergence on             energy=1.00D-06.
 No special actions if energy rises.
 Using DIIS extrapolation, IDIIS=  1040.
 Integral symmetry usage will be decided dynamically.
       294805 words used for storage of precomputed grid.
 Keep R1 integrals in memory in canonical form, NReq=    33201379.
 IEnd=    369490 IEndB=    369490 NGot= 536870912 MDV= 505522049
 LenX= 505522049
 Symmetry not used in FoFDir.
 MinBra= 0 MaxBra= 2 Meth= 1.
 IRaf=       0 NMat=   1 IRICut=       1 DoRegI=T DoRafI=F ISym2E= 0 JSym2E=0.
 Integral accuracy reduced to 1.0D-05 until final iterations.

 Cycle   1  Pass 0  IDiag  1:
 E= -294.532842378310    
 DIIS: error= 1.78D-03 at cycle   1 NSaved=   1.
 NSaved= 1 IEnMin= 1 EnMin= -294.532842378310     IErMin= 1 ErrMin= 1.78D-03
 ErrMax= 1.78D-03 EMaxC= 1.00D-01 BMatC= 8.88D-04 BMatP= 8.88D-04
 IDIUse=3 WtCom= 9.82D-01 WtEn= 1.78D-02
 Coeff-Com:  0.100D+01
 Coeff-En:   0.100D+01
 Coeff:      0.100D+01
 Gap=     0.270 Goal=   None    Shift=    0.000
 GapD=    0.270 DampG=1.000 DampE=1.000 DampFc=1.0000 IDamp=-1.
 RMSDP=4.83D-04 MaxDP=7.62D-03              OVMax= 1.56D-02

 Cycle   2  Pass 0  IDiag  1:
 E= -294.534581131299     Delta-E=       -0.001738752989 Rises=F Damp=F
 DIIS: error= 3.58D-04 at cycle   2 NSaved=   2.
 NSaved= 2 IEnMin= 2 EnMin= -294.534581131299     IErMin= 2 ErrMin= 3.58D-04
 ErrMax= 3.58D-04 EMaxC= 1.00D-01 BMatC= 2.63D-05 BMatP= 8.88D-04
 IDIUse=3 WtCom= 9.96D-01 WtEn= 3.58D-03
 Coeff-Com: -0.292D-01 0.103D+01
 Coeff-En:   0.000D+00 0.100D+01
 Coeff:     -0.291D-01 0.103D+01
 Gap=     0.253 Goal=   None    Shift=    0.000
 RMSDP=9.25D-05 MaxDP=1.80D-03 DE=-1.74D-03 OVMax= 2.98D-03

 Cycle   3  Pass 0  IDiag  1:
 E= -294.534579303296     Delta-E=        0.000001828004 Rises=F Damp=F
 DIIS: error= 4.07D-04 at cycle   3 NSaved=   3.
 NSaved= 3 IEnMin= 2 EnMin= -294.534581131299     IErMin= 2 ErrMin= 3.58D-04
 ErrMax= 4.07D-04 EMaxC= 1.00D-01 BMatC= 5.14D-05 BMatP= 2.63D-05
 IDIUse=3 WtCom= 3.32D-01 WtEn= 6.68D-01
 Coeff-Com: -0.465D-01 0.626D+00 0.420D+00
 Coeff-En:   0.000D+00 0.516D+00 0.484D+00
 Coeff:     -0.154D-01 0.552D+00 0.463D+00
 Gap=     0.253 Goal=   None    Shift=    0.000
 RMSDP=6.37D-05 MaxDP=1.40D-03 DE= 1.83D-06 OVMax= 2.26D-03

 Cycle   4  Pass 0  IDiag  1:
 E= -294.534615558217     Delta-E=       -0.000036254922 Rises=F Damp=F
 DIIS: error= 1.20D-04 at cycle   4 NSaved=   4.
 NSaved= 4 IEnMin= 4 EnMin= -294.534615558217     IErMin= 4 ErrMin= 1.20D-04
 ErrMax= 1.20D-04 EMaxC= 1.00D-01 BMatC= 3.28D-06 BMatP= 2.63D-05
 IDIUse=3 WtCom= 9.99D-01 WtEn= 1.20D-03
 Coeff-Com: -0.143D-01 0.139D+00 0.240D+00 0.635D+00
 Coeff-En:   0.000D+00 0.000D+00 0.306D-01 0.969D+00
 Coeff:     -0.143D-01 0.139D+00 0.240D+00 0.636D+00
 Gap=     0.253 Goal=   None    Shift=    0.000
 RMSDP=1.55D-05 MaxDP=3.81D-04 DE=-3.63D-05 OVMax= 1.03D-03

 Cycle   5  Pass 0  IDiag  1:
 E= -294.534618221447     Delta-E=       -0.000002663230 Rises=F Damp=F
 DIIS: error= 5.74D-05 at cycle   5 NSaved=   5.
 NSaved= 5 IEnMin= 5 EnMin= -294.534618221447     IErMin= 5 ErrMin= 5.74D-05
 ErrMax= 5.74D-05 EMaxC= 1.00D-01 BMatC= 3.43D-07 BMatP= 3.28D-06
 IDIUse=1 WtCom= 1.00D+00 WtEn= 0.00D+00
 Coeff-Com: -0.229D-02-0.545D-02 0.909D-01 0.412D+00 0.505D+00
 Coeff:     -0.229D-02-0.545D-02 0.909D-01 0.412D+00 0.505D+00
 Gap=     0.253 Goal=   None    Shift=    0.000
 RMSDP=4.79D-06 MaxDP=1.35D-04 DE=-2.66D-06 OVMax= 3.35D-04

 Initial convergence to 1.0D-05 achieved.  Increase integral accuracy.
 Cycle   6  Pass 1  IDiag  1:
 E= -294.534617866521     Delta-E=        0.000000354926 Rises=F Damp=F
 DIIS: error= 7.68D-06 at cycle   1 NSaved=   1.
 NSaved= 1 IEnMin= 1 EnMin= -294.534617866521     IErMin= 1 ErrMin= 7.68D-06
 ErrMax= 7.68D-06 EMaxC= 1.00D-01 BMatC= 1.12D-08 BMatP= 1.12D-08
 IDIUse=1 WtCom= 1.00D+00 WtEn= 0.00D+00
 Coeff-Com:  0.100D+01
[...]
     13  0.152897D+00  0.207807D+00  0.000000D+00
 Paramagnetic spin-orbit (PSO) contribution to K (Hz):
                1             2             3             4             5
      1  0.000000D+00
      2 -0.766500D+00  0.000000D+00
      3 -0.687426D+00 -0.126798D+00  0.000000D+00
      4 -0.982714D-01  0.176842D-01  0.120567D-01  0.000000D+00
      5  0.656697D-02  0.381075D-01  0.400750D-01  0.575661D-01  0.000000D+00
      6  0.278390D-01  0.490545D-01  0.472491D-01  0.124538D-01  0.687308D-01
      7  0.234245D-01  0.420432D-01  0.343161D-01  0.500234D-02  0.574454D-01
      8  0.270203D+01 -0.376895D-01  0.216954D+00  0.321493D+00  0.552585D-01
      9 -0.815039D-01 -0.108471D+00 -0.109941D+01  0.276137D-01 -0.102433D-01
     10 -0.480425D-02  0.361836D-02 -0.186712D-01  0.375037D-01 -0.257174D-01
     11  0.172568D-01 -0.450304D-02 -0.116862D+00  0.249989D-01  0.152642D-01
     12  0.218181D-01  0.224566D-01  0.239295D-01  0.262295D-01  0.152218D-01
     13  0.148342D-01  0.139590D-01 -0.222382D-01  0.163947D-01  0.206175D-01
                6             7             8             9            10
      6  0.000000D+00
      7  0.853883D-02  0.000000D+00
      8  0.416330D-01  0.373397D-01  0.000000D+00
      9  0.265668D-01 -0.390938D-01 -0.175699D+00  0.000000D+00
     10  0.362107D-01  0.539707D-01 -0.189614D-01 -0.262866D-01  0.000000D+00
     11  0.194368D-01 -0.402865D-01 -0.328097D-01 -0.498371D+01 -0.160734D+00
     12  0.253427D-01  0.309655D-01  0.117825D-01 -0.174564D+00  0.297410D-02
     13  0.144340D-01 -0.304050D-01  0.171158D-01 -0.184096D+00  0.501185D-01
               11            12            13
     11  0.000000D+00
     12  0.220343D-01  0.000000D+00
     13  0.203470D-01  0.825647D-01  0.000000D+00
 Paramagnetic spin-orbit (PSO) contribution to J (Hz):
                1             2             3             4             5
      1  0.000000D+00
      2 -0.151271D+01  0.000000D+00
      3 -0.135665D+01 -0.250239D+00  0.000000D+00
      4 -0.771126D+00  0.138766D+00  0.946074D-01  0.000000D+00
      5  0.515304D-01  0.299026D+00  0.314464D+00  0.179606D+01  0.000000D+00
      6  0.218450D+00  0.384926D+00  0.370759D+00  0.388558D+00  0.214440D+01
      7  0.183810D+00  0.329909D+00  0.269275D+00  0.156073D+00  0.179229D+01
      8  0.199576D+02 -0.278381D+00  0.160246D+01  0.944163D+01  0.162284D+01
      9 -0.160850D+00 -0.214071D+00 -0.216972D+01  0.216682D+00 -0.803785D-01
     10 -0.376985D-01  0.283929D-01 -0.146511D+00  0.117011D+01 -0.802381D+00
     11  0.340568D-01 -0.888687D-02 -0.230630D+00  0.196164D+00  0.119777D+00
     12  0.171204D+00  0.176215D+00  0.187772D+00  0.818358D+00  0.474919D+00
     13  0.116403D+00  0.109535D+00 -0.174501D+00  0.511515D+00  0.643264D+00
                6             7             8             9            10
      6  0.000000D+00
      7  0.266411D+00  0.000000D+00
      8  0.122268D+01  0.109660D+01  0.000000D+00
      9  0.208467D+00 -0.306765D+00 -0.129774D+01  0.000000D+00
     10  0.112977D+01  0.168388D+01 -0.556859D+00 -0.206268D+00  0.000000D+00
     11  0.152518D+00 -0.316125D+00 -0.242339D+00 -0.983548D+01 -0.126126D+01
     12  0.790691D+00  0.966121D+00  0.346029D+00 -0.136979D+01  0.927919D-01
     13  0.450340D+00 -0.948635D+00  0.502659D+00 -0.144458D+01  0.156369D+01
               11            12            13
     11  0.000000D+00
     12  0.172901D+00  0.000000D+00
     13  0.159661D+00  0.257601D+01  0.000000D+00
 Diamagnetic spin-orbit (DSO) contribution to K (Hz):
                1             2             3             4             5
      1  0.000000D+00
      2  0.124546D+00  0.000000D+00
      3  0.138994D+00  0.111624D+00  0.000000D+00
      4  0.153363D+00 -0.408817D-01 -0.275293D-01  0.000000D+00
      5 -0.210883D-01  0.115734D+00 -0.221855D-01 -0.865411D-01  0.000000D+00
      6 -0.259818D-01  0.107375D+00 -0.288197D-01 -0.121926D-01 -0.895978D-01
      7 -0.129102D-01 -0.291529D-01  0.139862D+00 -0.106947D-02 -0.822970D-01
      8  0.124653D+00 -0.192167D-01 -0.112430D-01 -0.425278D-01  0.275314D-02
      9  0.905071D-02  0.155325D-02  0.131823D+00 -0.482296D-01  0.181265D-01
     10  0.636198D-02  0.233418D-02 -0.141130D-01 -0.564703D-01  0.422809D-01
     11 -0.326613D-01 -0.332798D-01 -0.114590D-01 -0.377922D-01 -0.260973D-01
     12 -0.350084D-01 -0.352616D-01 -0.524269D-01 -0.387161D-01 -0.221970D-01
     13 -0.242569D-01 -0.250039D-01  0.104567D-01 -0.231592D-01 -0.301870D-01
                6             7             8             9            10
      6  0.000000D+00
      7 -0.489816D-02  0.000000D+00
      8 -0.647071D-01 -0.632193D-01  0.000000D+00
      9 -0.462302D-01 -0.210697D-01  0.148975D-01  0.000000D+00
     10 -0.512934D-01 -0.872813D-01  0.401557D-01  0.120433D+00  0.000000D+00
     11 -0.353222D-01 -0.797085D-03 -0.263410D-01  0.760092D-01 -0.601983D-01
     12 -0.372954D-01 -0.510007D-01 -0.210828D-01 -0.606095D-01 -0.145415D-01
     13 -0.206390D-01  0.442999D-01 -0.299554D-01 -0.594906D-01 -0.985348D-01
               11            12            13
     11  0.000000D+00
     12  0.732384D-01  0.000000D+00
     13  0.777542D-01 -0.108345D+00  0.000000D+00
 Diamagnetic spin-orbit (DSO) contribution to J (Hz):
                1             2             3             4             5
      1  0.000000D+00
      2  0.245794D+00  0.000000D+00
      3  0.274309D+00  0.220293D+00  0.000000D+00
      4  0.120343D+01 -0.320794D+00 -0.216020D+00  0.000000D+00
      5 -0.165478D+00  0.908152D+00 -0.174088D+00 -0.270008D+01  0.000000D+00
      6 -0.203877D+00  0.842562D+00 -0.226146D+00 -0.380408D+00 -0.279545D+01
      7 -0.101305D+00 -0.228760D+00  0.109748D+01 -0.333674D-01 -0.256766D+01
      8  0.920709D+00 -0.141938D+00 -0.830428D-01 -0.124896D+01  0.808544D-01
      9  0.178618D-01  0.306537D-02  0.260156D+00 -0.378453D+00  0.142237D+00
     10  0.499218D-01  0.183161D-01 -0.110743D+00 -0.176187D+01  0.131916D+01
     11 -0.644580D-01 -0.656784D-01 -0.226145D-01 -0.296552D+00 -0.204783D+00
     12 -0.274708D+00 -0.276694D+00 -0.411389D+00 -0.120794D+01 -0.692545D+00
     13 -0.190342D+00 -0.196203D+00  0.820525D-01 -0.722566D+00 -0.941834D+00
                6             7             8             9            10
      6  0.000000D+00
      7 -0.152822D+00  0.000000D+00
      8 -0.190032D+01 -0.185663D+01  0.000000D+00
      9 -0.362764D+00 -0.165332D+00  0.110035D+00  0.000000D+00
     10 -0.160035D+01 -0.272317D+01  0.117930D+01  0.945027D+00  0.000000D+00
     11 -0.277170D+00 -0.625465D-02 -0.194559D+00  0.150006D+00 -0.472370D+00
     12 -0.116361D+01 -0.159122D+01 -0.619162D+00 -0.475597D+00 -0.453693D+00
     13 -0.643935D+00  0.138216D+01 -0.879733D+00 -0.466817D+00 -0.307428D+01
               11            12            13
     11  0.000000D+00
     12  0.574695D+00  0.000000D+00
     13  0.610129D+00 -0.338036D+01  0.000000D+00
 Total nuclear spin-spin coupling K (Hz): 
                1             2             3             4             5
      1  0.000000D+00
      2  0.843080D+01  0.000000D+00
      3  0.793687D+01  0.489128D+01  0.000000D+00
      4  0.268373D+02  0.130539D+00  0.151613D+00  0.000000D+00
      5 -0.620380D+00  0.220211D+02 -0.337112D+00  0.674054D-01  0.000000D+00
      6  0.703737D-01  0.222813D+02 -0.296572D+00  0.205008D+00 -0.252542D+00
      7  0.193131D+00 -0.306839D+00  0.216886D+02  0.218612D+00  0.210569D+00
      8 -0.436028D+02  0.988760D+00  0.988421D+00  0.234364D+01  0.799930D+00
      9 -0.142715D+01 -0.110424D+01  0.303047D+02  0.402245D-01  0.972329D+00
     10  0.302979D+00  0.273529D+00  0.384819D+00 -0.207002D-01  0.505431D-02
     11  0.145757D+01  0.140757D+01  0.143234D+01  0.444693D-02 -0.415304D-01
     12 -0.152001D+00 -0.217367D+00  0.197908D+01 -0.190766D-01  0.420395D-02
     13 -0.171421D+00 -0.225576D+00  0.117044D+01 -0.145701D-01 -0.418000D-02
                6             7             8             9            10
      6  0.000000D+00
      7  0.353220D+00  0.000000D+00
      8  0.346063D+00  0.749191D-01  0.000000D+00
      9  0.513093D+00 -0.356609D-01  0.125489D+01  0.000000D+00
     10 -0.212205D-01  0.313376D+00  0.924015D-01  0.213249D+02  0.000000D+00
     11  0.111278D-01  0.678548D+00  0.133605D+00  0.410389D+02  0.141951D-01
     12 -0.171235D-01 -0.292313D-01 -0.552677D-02  0.270757D-01  0.382075D+00
     13 -0.141701D-01  0.257262D-02  0.510328D-02 -0.320465D+00  0.558371D+00
               11            12            13
     11  0.000000D+00
     12  0.220044D+02  0.000000D+00
     13  0.212194D+02  0.536115D-01  0.000000D+00
 Total nuclear spin-spin coupling J (Hz): 
                1             2             3             4             5
      1  0.000000D+00
      2  0.166384D+02  0.000000D+00
      3  0.156636D+02  0.965307D+01  0.000000D+00
      4  0.210590D+03  0.102433D+01  0.118969D+01  0.000000D+00
      5 -0.486806D+01  0.172798D+03 -0.264528D+01  0.210305D+01  0.000000D+00
      6  0.552216D+00  0.174839D+03 -0.232717D+01  0.639624D+01 -0.787930D+01
      7  0.151548D+01 -0.240774D+01  0.170188D+03  0.682069D+01  0.656973D+01
      8 -0.322058D+03  0.730316D+01  0.730066D+01  0.688283D+02  0.234924D+02
      9 -0.281652D+01 -0.217924D+01  0.598071D+02  0.315638D+00  0.762977D+01
     10  0.237745D+01  0.214636D+01  0.301964D+01 -0.645846D+00  0.157694D+00
     11  0.287654D+01  0.277787D+01  0.282675D+01  0.348946D-01 -0.325885D+00
     12 -0.119274D+01 -0.170566D+01  0.155297D+02 -0.595190D+00  0.131163D+00
     13 -0.134512D+01 -0.177008D+01  0.918433D+01 -0.454587D+00 -0.130416D+00
                6             7             8             9            10
      6  0.000000D+00
      7  0.110204D+02  0.000000D+00
      8  0.101632D+02  0.220023D+01  0.000000D+00
      9  0.402619D+01 -0.279827D+00  0.926884D+01  0.000000D+00
     10 -0.662077D+00  0.977733D+01  0.271365D+01  0.167334D+03  0.000000D+00
     11  0.873184D-01  0.532450D+01  0.986833D+00  0.809914D+02  0.111387D+00
     12 -0.534253D+00 -0.912016D+00 -0.162311D+00  0.212460D+00  0.119207D+02
     13 -0.442107D+00  0.802655D-01  0.149874D+00 -0.251466D+01  0.174211D+02
               11            12            13
     11  0.000000D+00
     12  0.172666D+03  0.000000D+00
     13  0.166507D+03  0.167268D+01  0.000000D+00
 End of Minotr Frequency-dependent properties file   721 does not exist.
 Leave Link 1002 at Thu Oct 27 19:42:01 2011, MaxMem=  536870912 cpu:    1454.9
 (Enter /system/software/orac/g03_E.01/g03/l601.exe)
 Copying SCF densities to generalized density rwf, ISCF=0 IROHF=0.

 **********************************************************************

            Population analysis using the SCF density.

 **********************************************************************

 Orbital symmetries:
       Occupied  (A) (A) (A) (A) (A) (A) (A) (A) (A) (A) (A) (A)
                 (A) (A) (A) (A) (A) (A) (A) (A) (A) (A) (A)
       Virtual   (A) (A) (A) (A) (A) (A) (A) (A) (A) (A) (A) (A)
                 (A) (A) (A) (A) (A) (A) (A) (A) (A) (A) (A) (A)
                 (A) (A) (A) (A) (A) (A) (A) (A) (A) (A) (A) (A)
                 (A) (A) (A) (A) (A) (A) (A) (A) (A) (A) (A) (A)
                 (A) (A) (A) (A) (A) (A) (A) (A) (A) (A) (A) (A)
                 (A) (A) (A) (A) (A) (A) (A) (A) (A) (A) (A) (A)
                 (A) (A) (A) (A) (A) (A) (A) (A) (A) (A) (A) (A)
                 (A) (A) (A) (A) (A) (A) (A) (A) (A) (A) (A) (A)
                 (A) (A) (A) (A) (A) (A) (A) (A) (A) (A) (A) (A)
                 (A) (A) (A) (A) (A) (A) (A) (A) (A) (A) (A) (A)
                 (A) (A) (A) (A) (A) (A) (A) (A) (A) (A) (A)
 The electronic state is 1-A.
 Alpha  occ. eigenvalues --  -24.69459 -10.28160 -10.21834 -10.20885 -10.20630
 Alpha  occ. eigenvalues --  -10.18804  -1.20539  -0.87663  -0.76831  -0.63226
 Alpha  occ. eigenvalues --   -0.62090  -0.56756  -0.52648  -0.50854  -0.45613
 Alpha  occ. eigenvalues --   -0.43911  -0.42800  -0.40552  -0.39722  -0.35251
 Alpha  occ. eigenvalues --   -0.33450  -0.29782  -0.24682
 Alpha virt. eigenvalues --    0.00134   0.02197   0.03427   0.03994   0.04740
 Alpha virt. eigenvalues --    0.07145   0.09361   0.12969   0.14829   0.16082
 Alpha virt. eigenvalues --    0.17981   0.19441   0.20403   0.21098   0.22585
 Alpha virt. eigenvalues --    0.24063   0.24740   0.27007   0.27552   0.29219
 Alpha virt. eigenvalues --    0.30544   0.32051   0.32958   0.33576   0.35416
 Alpha virt. eigenvalues --    0.37507   0.40171   0.40799   0.43287   0.47178
 Alpha virt. eigenvalues --    0.48089   0.49669   0.50135   0.50732   0.51219
 Alpha virt. eigenvalues --    0.53246   0.57758   0.65212   0.72996   0.81482
 Alpha virt. eigenvalues --    0.82011   0.84283   0.86209   0.87432   0.90901
 Alpha virt. eigenvalues --    0.92480   0.94838   0.96588   1.00657   1.04735
 Alpha virt. eigenvalues --    1.06783   1.07328   1.10612   1.11109   1.12225
 Alpha virt. eigenvalues --    1.16815   1.19536   1.23701   1.24108   1.33132
 Alpha virt. eigenvalues --    1.36306   1.37855   1.40117   1.41328   1.41776
 Alpha virt. eigenvalues --    1.45160   1.50417   1.53576   1.54858   1.59705
 Alpha virt. eigenvalues --    1.61348   1.63574   1.67655   1.69971   1.72894
 Alpha virt. eigenvalues --    1.75166   1.79669   1.81519   1.82154   1.86741
 Alpha virt. eigenvalues --    1.87642   1.91132   1.96491   2.00702   2.09311
 Alpha virt. eigenvalues --    2.14704   2.19578   2.22456   2.24594   2.26306
 Alpha virt. eigenvalues --    2.27433   2.33495   2.37606   2.43685   2.44683
 Alpha virt. eigenvalues --    2.52225   2.58558   2.61155   2.74935   2.88374
 Alpha virt. eigenvalues --    3.59601   3.60600   3.79204   3.87718   4.00503
 Alpha virt. eigenvalues --    5.00604   5.02940   5.05756   5.10728   5.14115
 Alpha virt. eigenvalues --    5.20633   5.24174   5.30294   5.38010   5.57537
 Alpha virt. eigenvalues --    5.68102   5.89667  11.19824  29.61455  29.80337
 Alpha virt. eigenvalues --   29.97671  30.01858  30.17778  36.63158  36.66752
 Alpha virt. eigenvalues --   36.68780  36.73594  36.81955  36.82970  36.89081
 Alpha virt. eigenvalues --   68.13018
          Condensed to atoms (all electrons):
              1          2          3          4          5          6
     1  C    4.840093   0.303627   0.281567   0.413591  -0.015486  -0.019458
     2  C    0.303627   5.106251   0.249271  -0.040206   0.418267   0.396956
     3  C    0.281567   0.249271   4.796552  -0.025929  -0.014619  -0.011302
     4  H    0.413591  -0.040206  -0.025929   0.559589   0.000560  -0.003851
     5  H   -0.015486   0.418267  -0.014619   0.000560   0.452045  -0.018695
     6  H   -0.019458   0.396956  -0.011302  -0.003851  -0.018695   0.505337
     7  H   -0.035129  -0.030669   0.410299  -0.002258   0.001166  -0.005015
     8  F    0.192405  -0.027302  -0.024968  -0.036336  -0.005362   0.001726
     9  C    0.002892   0.016929   0.424337  -0.002677   0.000053  -0.002252
    10  H   -0.010678  -0.005488  -0.030062   0.000009   0.000903   0.000037
    11  C   -0.002147  -0.003397   0.017254  -0.000076  -0.000689   0.000159
    12  H    0.001063   0.000342  -0.006505   0.000000  -0.000005   0.000000
    13  H   -0.001048   0.000124  -0.000455  -0.000005   0.000003   0.000001
              7          8          9         10         11         12
     1  C   -0.035129   0.192405   0.002892  -0.010678  -0.002147   0.001063
     2  C   -0.030669  -0.027302   0.016929  -0.005488  -0.003397   0.000342
     3  C    0.410299  -0.024968   0.424337  -0.030062   0.017254  -0.006505
     4  H   -0.002258  -0.036336  -0.002677   0.000009  -0.000076   0.000000
     5  H    0.001166  -0.005362   0.000053   0.000903  -0.000689  -0.000005
     6  H   -0.005015   0.001726  -0.002252   0.000037   0.000159   0.000000
     7  H    0.572819   0.000860  -0.021336   0.003007  -0.011458   0.000209
     8  F    0.000860   9.100970  -0.011683   0.002061   0.000723   0.000140
     9  C   -0.021336  -0.011683   4.579633   0.416767   0.600823  -0.012686
    10  H    0.003007   0.002061   0.416767   0.550629  -0.047403  -0.004184
    11  C   -0.011458   0.000723   0.600823  -0.047403   5.117974   0.394150
    12  H    0.000209   0.000140  -0.012686  -0.004184   0.394150   0.498155
    13  H    0.001808  -0.000029  -0.036720   0.002648   0.412822  -0.025483
             13
     1  C   -0.001048
     2  C    0.000124
     3  C   -0.000455
     4  H   -0.000005
     5  H    0.000003
     6  H    0.000001
     7  H    0.001808
     8  F   -0.000029
     9  C   -0.036720
    10  H    0.002648
    11  C    0.412822
    12  H   -0.025483
    13  H    0.486938
 Mulliken atomic charges:
              1
     1  C    0.048710
     2  C   -0.384705
     3  C   -0.065438
     4  H    0.137589
     5  H    0.181857
     6  H    0.156358
     7  H    0.115696
     8  F   -0.193205
     9  C    0.045920
    10  H    0.121754
    11  C   -0.478735
    12  H    0.154804
    13  H    0.159396
 Sum of Mulliken charges=   0.00000
 Atomic charges with hydrogens summed into heavy atoms:
              1
     1  C    0.186299
     2  C   -0.046491
     3  C    0.050257
     4  H    0.000000
     5  H    0.000000
     6  H    0.000000
     7  H    0.000000
     8  F   -0.193205
     9  C    0.167675
    10  H    0.000000
    11  C   -0.164535
    12  H    0.000000
    13  H    0.000000
 Sum of Mulliken charges=   0.00000
 Electronic spatial extent (au):  <R**2>=   623.7956
 Charge=     0.0000 electrons
 Dipole moment (field-independent basis, Debye):
    X=     0.0680    Y=     1.7980    Z=    -0.4652  Tot=     1.8584
 Quadrupole moment (field-independent basis, Debye-Ang):
   XX=   -36.0959   YY=   -37.0525   ZZ=   -34.2981
   XY=    -3.2530   XZ=     0.7564   YZ=    -2.1305
 Traceless Quadrupole moment (field-independent basis, Debye-Ang):
   XX=    -0.2804   YY=    -1.2370   ZZ=     1.5174
   XY=    -3.2530   XZ=     0.7564   YZ=    -2.1305
 Octapole moment (field-independent basis, Debye-Ang**2):
  XXX=    -5.0109  YYY=    -3.4260  ZZZ=     0.4574  XYY=    -3.2209
  XXY=    -0.3926  XXZ=    -4.0678  XZZ=    -7.2360  YZZ=    -1.8029
  YYZ=    -0.0792  XYZ=    -4.0223
 Hexadecapole moment (field-independent basis, Debye-Ang**3):
 XXXX=  -526.5515 YYYY=  -168.3025 ZZZZ=   -85.4547 XXXY=     0.8348
 XXXZ=     4.3567 YYYX=     3.9376 YYYZ=    -4.9315 ZZZX=    -0.3780
 ZZZY=    -3.5275 XXYY=  -120.9335 XXZZ=  -103.1240 YYZZ=   -42.3853
 XXYZ=    -9.2893 YYXZ=     0.3696 ZZXY=     4.1580
 N-N= 2.250237319956D+02 E-N=-1.138541261305D+03  KE= 2.923824118104D+02
 Calculating spin-rotation constants.
 Leave Link  601 at Thu Oct 27 19:42:07 2011, MaxMem=  536870912 cpu:      15.1
 (Enter /system/software/orac/g03_E.01/g03/l9999.exe)
 1\1\GINC-ORAC\SP\RB3LYP\EPR-II\C5H7F1\KUPROV\27-Oct-2011\0\\#p nmr=(gi
 ao,spinspin) b3lyp/EPR-II scf=tight geom=checkpoint integral=(grid=ult
 rafine)\\Test molecule for MPS module in Spinach.\\0,1\C,0,-0.26447353
 21,1.1498956989,0.0363829398\C,0,1.2188748179,1.0455482397,-0.04339192
 35\C,0,0.5415118419,2.4267204977,0.0049229291\H,0,-0.8006903973,0.8682
 732558,0.9472426553\H,0,1.6308245274,0.7426019035,-1.0090370968\H,0,1.
 7772178624,0.7052972878,0.831531119\H,0,0.6150372585,2.9668403788,0.95
 3435005\F,0,-0.9820201434,0.8236157583,-1.0930454623\C,0,0.5265935735,
 3.277200632,-1.2054579354\H,0,0.3478041009,2.7562024823,-2.151871689\C
 ,0,0.7041814994,4.6030169512,-1.2053503021\H,0,0.6804369126,5.17702653
 08,-2.134271111\H,0,0.8775638084,5.1602886832,-0.2795066779\\Version=I
 A64L-G03RevE.01\State=1-A\HF=-294.5854654\RMSD=3.810e-09\Thermal=0.\Di
 pole=0.4340372,0.0538479,0.5859221\PG=C01 [X(C5H7F1)]\\@


 AND ALL THIS SCIENCE I DON'T UNDERSTAND
 IT'S JUST MY JOB FIVE DAYS A WEEK

                           -- ELTON JOHN, "ROCKET MAN"
 Job cpu time:  0 days  0 hours 27 minutes 20.5 seconds.
 File lengths (MBytes):  RWF=     99 Int=      0 D2E=      0 Chk=     11 Scr=      1
 Normal termination of Gaussian 03 at Thu Oct 27 19:42:07 2011.
